% Model:              Untitled.mph
% Version:            COMSOL 6.0.0.405
% Date:               Jul 16 2025, 13:29
% Dimension:          1
% Nodes:              401
% Expressions:        11
% Description:        Point graph
% Time (s)                Displacement field, Y component Displacement field, Y component Displacement field, Y component Displacement field, Y component Displacement field, Y component Displacement field, Y component Displacement field, Y component Displacement field, Y component Displacement field, Y component Displacement field, Y component Displacement field, Y component
0                         -6.055324294035908E-32   -2.160596303268733E-31   -2.9373143925218866E-36  -7.360931352801944E-38   -2.3023387925068786E-38  1.3424241210090382E-30   6.312077393842977E-31    -1.7801225161857655E-33  2.3106219120763498E-35   4.402712912880447E-36    3.2461193663738424E-37
5.0E-7                    6.101421595343321E-24    3.2459103617562865E-23   3.84937043323597E-28     1.0578995487547916E-29   2.349600013915395E-30    -1.8533748234679224E-22  -9.153262846741326E-23   2.666230880392314E-25    -3.354552011097386E-27   -6.563073604624089E-28   -8.085776174233641E-30
1.0E-6                    -3.296698723846101E-23   -2.982801673490894E-23   -1.6001667879396514E-28  -1.4579512932040172E-29  -2.279102650623818E-29   2.220960160455717E-22    1.3048833121521974E-22   -4.990541857423287E-25   5.0760358037510166E-27   1.0512087769157693E-27   -2.67124823220865E-28
1.5E-6                    8.30005815386232E-23     -2.6864559210168484E-22  -2.6479405797944043E-27  -2.0679816565407824E-30  2.1298564827006843E-29   -2.6807072394493037E-22  -8.6097155158413E-23     1.0179846569284098E-24   -5.7645972781717625E-27  1.635139103131481E-27    8.986620556888795E-28
2.0E-6                    3.4220163621036586E-22   9.60456031532365E-22     7.981067672570944E-27    -1.764282358200387E-29   2.1740676357685713E-28   3.7580664013347544E-22   -1.1920773640730848E-23  -2.2895124975331928E-24  4.933329565368716E-26    -1.1336156115023084E-26  -7.433695858603462E-29
2.4999999999999998E-6     -1.0373184908784894E-21  8.337708879745374E-22    -2.0795285135820746E-26  -3.703883165563262E-28   1.9219861899330399E-28   3.429902865236498E-21    1.5287728295872196E-22   -2.864485649301464E-25   7.313266075755448E-26    4.565787366772031E-26    -5.956924532684789E-27
3.0E-6                    -3.8773986630034844E-21  -6.512133046554522E-21   -2.8942248505256485E-26  -1.1440109698881723E-27  -2.6797815680147342E-27  -1.7063067771147377E-20  5.696716319776917E-22    3.5509783591868085E-23   4.493490863590427E-25    -1.7525812071972455E-27  3.771951890982172E-27
3.5E-6                    1.5776730367468588E-22   -2.0472586290422024E-20  5.509247643518835E-26    -6.110436960179346E-27   5.575119870151158E-27    1.1261405230858469E-20   4.34290069575304E-21     -2.0851520195978486E-23  3.022400282079931E-24    -1.4480204551923794E-25  5.123170177667125E-26
4.0E-6                    3.4795947049369086E-20   3.988720587886528E-20    -1.2794473064127417E-25  -1.8196854274405933E-26  3.3579003504992825E-26   8.97003325515797E-20     -1.9693463049391006E-21  -4.5453369895410176E-23  5.9773331108908235E-24   7.760649561500163E-25    -6.118733544337066E-26
4.5E-6                    4.1610089323900847E-20   1.5272482969571692E-19   1.061354852568508E-25    -4.0113062748008565E-26  -7.460583462600478E-26   7.5935543805993E-21      7.751228741461031E-21    8.124781995228582E-22    2.689638916302065E-23    1.7928456424577765E-24   -3.373971499148529E-25
4.9999999999999996E-6     -2.901849234325497E-19   -1.9283636645207356E-19  5.6931269485767165E-25   -1.1903501187740666E-25  -3.227231544963782E-25   -4.886223541343023E-19   9.496416659713288E-20    1.955460364020369E-21    1.5408435670963246E-22   -5.298975066284735E-24   3.70667297820465E-25
5.5E-6                    -7.362551289129423E-19   -1.1459878196971861E-18  -5.3265285318903816E-24  -2.902458125791895E-25   5.293860453133245E-26    1.0113571911887014E-20   2.469116766157295E-19    2.6675937232456155E-21   3.434826296690131E-22    3.2784021041093018E-24   1.5688349537886531E-24
6.0E-6                    8.094345925887813E-19    -8.020517083354154E-19   -2.4275686863553503E-23  -5.296159376180241E-25   1.333238001148919E-24    3.767343783526805E-18    4.925475537473275E-19    1.441835377262445E-20    6.617389108629254E-22    1.1359855679122346E-22   -6.859937537798118E-25
6.5E-6                    2.750713622077403E-18    2.051277469665006E-18    -4.295825003474274E-23   -2.125466761017472E-24   2.5415303864783362E-24   4.043661556749689E-18    1.95272532583207E-18     6.297918211973124E-20    3.808456405656555E-21    2.0850908395913137E-22   -3.690509314088191E-24
7.0E-6                    -6.888217545051328E-18   6.348830557191958E-19    -6.586006067987883E-23   -1.097504316348043E-23   1.4753928340000753E-24   -7.170381980727092E-18   7.534017710793586E-18    1.635904683917252E-19    1.4939908637536937E-20   7.301307795197518E-24    -1.9754053253163338E-24
7.499999999999999E-6      -2.3910012926154753E-17  -1.859248843287172E-17   -5.130588854552275E-22   -4.093269922162875E-23   -1.9633081918550004E-23  1.8970944895879244E-18   2.040190413327598E-17    4.0081426487368747E-19   3.748005623133968E-20    8.507547382973922E-22    -1.5868972780888937E-24
8.0E-6                    -9.421253229133572E-18   -5.933088799308553E-17   -1.7825842999631484E-21  -1.2194714743798368E-22  -9.767213038735931E-23   8.30674626058583E-17     4.93787232170992E-17     1.324302117250272E-18    1.0605863259100341E-19   6.139223222637978E-21    2.379867394871412E-23
8.5E-6                    -9.375142525128246E-18   -1.0415636382429631E-16  -2.3151124274225593E-21  -3.514299138349222E-22   -1.7130855254596112E-22  1.9763896929664287E-16   1.353755635840669E-16    4.279391510419333E-18    3.7934233637711744E-19   1.8342288661785022E-20   9.37561407062459E-23
9.0E-6                    -2.467461523284033E-16   -1.7668932195301644E-16  -9.101640458172363E-21   -1.092552211729362E-21   5.678110344338121E-23    2.949686821775975E-16    3.993550042539815E-16    1.1703902061059673E-17   1.2219490866267608E-18   5.3025590709531353E-20   7.728653768661264E-23
9.499999999999999E-6      -7.831453811252799E-16   -5.173244132822648E-16   -5.749040802456592E-20   -3.5327083687053086E-21  5.387931747224415E-22    7.055651708207407E-16    1.1152729631843772E-15   3.123493891590063E-17    3.5325642906758986E-18   1.75975218889478E-19     -3.616460520664926E-23
9.999999999999999E-6      -1.3501656002903109E-15  -1.6831731976283212E-15  -1.644100647690328E-19   -1.1359441837045785E-20  -7.364128967659319E-22   2.385720378675064E-15    2.9077134434582615E-15   8.88521819162685E-17     1.0324757119578681E-17   5.255277476041212E-19    -7.918435135700232E-24
1.05E-5                   -2.764843896446375E-15   -4.437548328838888E-15   -3.109568243775565E-19   -3.506445313276973E-20   -8.115075460970768E-21   6.88626416822506E-15     7.40532289716937E-15     2.5101053410964096E-16   3.0547088887905075E-17   1.5154707298923448E-18   6.349389951201427E-22
1.1E-5                    -8.83739573288814E-15    -1.0065696351713685E-14  -9.098680738915366E-19   -1.005281214895636E-19   -2.5598926102240686E-20  1.695759604055087E-14    1.8820373282879366E-14   6.690571391595691E-16    8.728821112016783E-17    4.7316662468004625E-18   5.982496532958357E-21
1.15E-5                   -2.5523997079629328E-14  -2.215497186506568E-14   -3.4454955885633864E-18  -2.7495859549465504E-19  -5.663032894298075E-20   3.918463980395189E-14    4.699843873058316E-14    1.7266169416880935E-15   2.41327636155985E-16     1.4443190457013166E-17   2.1389363818872073E-20
1.2E-5                    -6.002007364558911E-14   -5.000558645978508E-14   -1.0072203575297088E-17  -7.653996341608356E-19   -1.1665370752708216E-19  9.069942418348629E-14    1.1330780807140986E-13   4.444749980260196E-15    6.558529133893067E-16    4.012094018497863E-17    2.930267962874465E-20
1.2499999999999999E-5     -1.3053105994579396E-13  -1.1221290879252319E-13  -2.516279328018939E-17   -2.1820163997035817E-18  -2.8483920936493836E-19  2.1207662273434547E-13   2.6289519427965795E-13   1.128671645890541E-14    1.7434942027718954E-15   1.0678856977935016E-16   1.1903250243271045E-20
1.3E-5                    -2.921280313437577E-13   -2.377043359072157E-13   -6.652047323172309E-17   -6.0767339646766904E-18  -8.67525891715129E-19    4.860438852820142E-13    5.903540448058023E-13    2.7615273898430753E-14   4.4894050060635445E-15   2.8698063589349124E-16   1.1878059937077783E-19
1.35E-5                   -6.685178649379351E-13   -4.66112453499367E-13    -1.8381622269661662E-16  -1.6175473126906933E-17  -2.6917092962692156E-18  1.0626413741066803E-12   1.2851725399389302E-12   6.481878670302384E-14    1.1199132607461083E-14   7.642607412486494E-16    6.955150003291856E-19
1.4E-5                    -1.4748611596224874E-12  -8.595364500391461E-13   -4.803258473900093E-16   -4.1733465948167286E-17  -7.385515731487888E-18   2.1995331754570248E-12   2.6878935230972327E-12   1.4729924940319185E-13   2.7140313216197326E-14   1.9529361768849847E-15   1.7148205981224342E-18
1.45E-5                   -3.039871431845052E-12   -1.5238594085805452E-12  -1.1931988216384232E-15  -1.0609361837628623E-16  -1.8046362771041647E-17  4.325136573209192E-12    5.337132337651005E-12    3.2532435804678484E-13   6.374655311028587E-14    4.789581259510802E-15    2.628600587887542E-18
1.4999999999999999E-5     -5.87825610015322E-12    -2.593178831378747E-12   -2.93262176279066E-15    -2.6651280545084747E-16  -4.254529109947676E-17   8.108667031372005E-12    1.0006781262049992E-11   6.927877172611923E-13    1.4440913104871086E-13   1.1427518919643527E-14   4.899716412514455E-18
1.55E-5                   -1.0829922168430083E-11  -4.165003336985852E-12   -7.0839136757665674E-15  -6.584505717428529E-16   -1.0302872198391609E-16  1.4458591779826484E-11   1.7678884759349847E-11   1.4050276242684114E-12   3.144353967239106E-13    2.656177203597878E-14    1.540041828658578E-17
1.6E-5                    -1.9039703001403728E-11  -6.349360329596548E-12   -1.6432363471940574E-14  -1.5903916392439156E-15  -2.545906900038535E-16   2.4245012531242292E-11   2.91896137403403E-11     2.689209391075365E-12    6.560247047402941E-13    5.962133614824442E-14    4.3982517768442955E-17
1.6499999999999998E-5     -3.1346931768605936E-11  -9.595946154241936E-12   -3.670075988091819E-14   -3.7366330257849746E-15  -6.187755117286549E-16   3.757187378650872E-11    4.4343277966323207E-11   4.833257865040934E-12    1.3047926102173131E-12   1.2847213803758188E-13   9.862734312986596E-17
1.7E-5                    -4.7179187139720216E-11  -1.493639313250331E-11   -7.99947823500551E-14    -8.526874226549595E-15   -1.4505484717363765E-15  5.305430787395398E-11    6.111573257556554E-11    8.122380420845177E-12    2.4574727339080615E-12   2.6562608347798817E-13   2.0026541900404633E-16
1.75E-5                   -6.418456110984413E-11   -2.3348017816412073E-11  -1.696425827763956E-13   -1.8938892209321023E-14  -3.280834761094979E-15   6.827141537196133E-11    7.627002013208434E-11    1.2683137501263677E-11   4.355212767492394E-12    5.26541040931999E-13     4.2809104770343523E-16
1.8E-5                    -7.975016616688463E-11   -3.434946889960976E-11   -3.445980439482188E-13   -4.10120390885195E-14    -7.213791196076053E-15   8.15958338344393E-11     8.745590544743137E-11    1.8244496055004283E-11   7.222745028190011E-12    9.96109257095284E-13     9.700238155772906E-16
1.85E-5                   -9.31258472775789E-11    -4.555434796301478E-11   -6.646157269878647E-13   -8.63796282524502E-14    -1.5514729845955545E-14  9.319427569722255E-11    9.440862856869371E-11    2.3958220430628987E-11   1.1140330630960532E-11   1.7874937806790855E-12   2.173547532612305E-15
1.8999999999999998E-5     -1.0504911891326138E-10  -5.436710000574574E-11   -1.2201328551152072E-12  -1.7594979674361912E-13  -3.266694074049909E-14   1.032203485816747E-10    9.72122776456424E-11     2.853448229934245E-11    1.5851821791877093E-11   3.029654587763687E-12    4.681146858682689E-15
1.95E-5                   -1.1455304005783623E-10  -5.988847956898498E-11   -2.139770843929611E-12   -3.447128977078982E-13   -6.703052372253857E-14   1.0952993333885153E-10   9.380448127135325E-11    3.080900657069486E-11    2.0611802241260794E-11   4.8396031017432895E-12   9.762481471200587E-15
1.9999999999999998E-5     -1.174731434368833E-10   -6.211879294984296E-11   -3.5677959875286536E-12  -6.47406892725875E-13    -1.3310382647541864E-13  1.090284679601141E-10    8.098412282905901E-11    3.0389257856132104E-11   2.4285922679742757E-11   7.267271365990237E-12    1.9913497046511437E-14
2.05E-5                   -1.1009757967152402E-10  -5.956367283059772E-11   -5.58824002788745E-12    -1.1635646091256009E-12  -2.5427754232090403E-13  1.0114184292494337E-10   5.83722068744554E-11     2.769902370375576E-11    2.5821384966806783E-11   1.0208166488008086E-11   3.988321311343068E-14
2.1E-5                    -9.371433110848439E-11   -4.9544027203088934E-11  -8.12073449539995E-12    -1.997090845563933E-12   -4.658852352333827E-13   8.722251721284715E-11    2.933957878651883E-11    2.323902272174861E-11    2.4803753632781348E-11   1.333586383324828E-11    7.839906846252247E-14
2.1499999999999997E-5     -7.254022116733903E-11   -3.159661623798376E-11   -1.0862121011355119E-11  -3.260226951118127E-12   -8.178428655470369E-13   6.554809424027203E-11    -3.693722326338144E-12   1.6908398428688736E-11   2.1517912213249763E-11   1.6164665784770682E-11   1.5046792018854276E-13
2.2E-5                    -4.580106941610719E-11   -8.740862885672722E-12   -1.3336051951873858E-11  -5.030084771798942E-12   -1.3741677146875586E-12  2.961820441588896E-11    -4.378344157375288E-11   8.306463880377071E-12    1.6331081149200836E-11   1.826646707219238E-11    2.7949581325325536E-13
2.2499999999999998E-5     -4.147307837513319E-12   1.6107221754310225E-11   -1.5040719612299716E-11  -7.280625711413812E-12   -2.2026467879452993E-12  -2.6855621951796374E-11  -9.766377552341761E-11   -2.474882951255264E-12   9.090782232390428E-12    1.9424927104126368E-11   4.989102966614679E-13
2.3E-5                    6.348362280356226E-11    4.3818407987133356E-11   -1.5604381350624296E-11  -9.829652269207114E-12   -3.345842353594335E-12   -1.0546346264121998E-10  -1.7019632452390806E-10  -1.499724455132025E-11   -6.274988431296588E-13   1.9447278125757468E-11   8.539783335532489E-13
2.35E-5                   1.598922609521998E-10    7.774643390440743E-11    -1.4822822004644685E-11  -1.2365958310842321E-11  -4.774909811568795E-12   -2.050595000071332E-10   -2.619797385805447E-10   -2.965418532304948E-11   -1.2716634752025274E-11  1.776883405192569E-11    1.4021648662842812E-12
2.4E-5                    2.7820696923375423E-10   1.1976558735846873E-10   -1.2532193496225842E-11  -1.457017771617024E-11   -6.3544105248749544E-12  -3.2531320456843924E-10  -3.7121077332693926E-10  -4.813247225789379E-11   -2.641593964038277E-11   1.3457548384233811E-11   2.203684605933443E-12
2.45E-5                   4.100477705502769E-10    1.692198298709567E-10    -8.481375683084782E-12   -1.6214452196120474E-11  -7.863414695979238E-12   -4.65609339830064E-10    -4.95288343318887E-10    -7.215099705669495E-11   -4.1232698843373096E-11  5.897699341724191E-12    3.2928001447007506E-12
2.4999999999999998E-5     5.533288323045304E-10    2.25192878700649E-10     -2.4718843806495425E-12  -1.707706253563189E-11   -9.080506716553757E-12   -6.223825437441593E-10   -6.302598996644149E-10   -1.0195507451454761E-10  -5.765139193897763E-11   -4.577988156757763E-12   4.637087410528975E-12
2.55E-5                   7.118231955566214E-10    2.8809107159853713E-10   5.294884713436256E-12    -1.6703415139077193E-11  -9.85709594370938E-12    -7.904345826467599E-10   -7.706505192432525E-10   -1.3638789822636544E-10  -7.662171938013409E-11   -1.707276812934683E-11   6.116362261346956E-12
2.6E-5                    8.88489493612769E-10     3.5877389076478276E-10   1.4213891431483883E-11   -1.4333707171570056E-11  -1.0081503692500202E-11  -9.65858199358635E-10    -9.109805566217424E-10   -1.7404844600999085E-10  -9.868858638708435E-11   -3.1220686519162584E-11  7.550514367891586E-12
2.65E-5                   1.07959284387656E-9      4.369628011803781E-10    2.394291709214056E-11    -9.256037666070128E-12   -9.557527960165127E-12   -1.1451492460298138E-9   -1.0468199901171594E-9   -2.1380976746239113E-10  -1.239868812276341E-10   -4.755716820866448E-11   8.760530997405875E-12
2.7E-5                    1.273930499401736E-9     5.202785959990542E-10    3.504028453389645E-11    -1.3121579965972423E-12  -7.962863947672166E-12   -1.3218497294607589E-9   -1.173701491311394E-9    -2.5444744123635073E-10  -1.5252243228906105E-10  -6.663375796751315E-11   9.60315642366546E-12
2.7499999999999998E-5     1.456742255022478E-9     6.037607028017731E-10    4.851938635284191E-11    9.083982053977982E-12    -4.98639369875632E-12    -1.485994785142234E-9    -1.2850718848706393E-9   -2.9445282120912325E-10  -1.8353461048974197E-10  -8.814019009560769E-11   9.939682064103257E-12
2.8E-5                    1.6150242632453129E-9    6.80218944064511E-10     6.459124654496267E-11    2.157401616666133E-11    -5.024591424837837E-13   -1.6265527305212856E-9   -1.3710674514700607E-9   -3.323070965483797E-10   -2.1465799426558606E-10  -1.1117582841389707E-10  9.57499708171419E-12
2.8499999999999998E-5     1.7401206824714956E-9    7.421424968161541E-10    8.22090550193093E-11     3.6386441276421935E-11   5.4293884863351694E-12   -1.7323445497169903E-9   -1.4185836500925053E-9   -3.6648698637349913E-10  -2.425944956278668E-10   -1.3493016594078216E-10  8.246574009885502E-12
2.9E-5                    1.8251561728862518E-9    7.841738973828259E-10    1.0008538345236706E-10   5.397403825168659E-11    1.2711436739940847E-11   -1.7898934403850283E-9   -1.4126546276344845E-9   -3.949468262695005E-10   -2.649191589389448E-10   -1.5853969719525066E-10  5.696279360909192E-12
2.95E-5                   1.8592924550206526E-9    8.036311040447499E-10    1.1771041435494394E-10   7.406227413914356E-11    2.129016697967145E-11    -1.781868302184338E-9    -1.3390708172886663E-9   -4.145795671350478E-10   -2.80837080712174E-10    -1.80570136406904E-10    1.7704691254106612E-12
2.9999999999999997E-5     1.8245085549919257E-9    7.978801925009821E-10    1.3492109088879025E-10   9.526616142926602E-11    3.1121538414055415E-11   -1.6894400998141734E-9   -1.1868688466034422E-9   -4.2114011132337646E-10  -2.9017314124832956E-10  -1.9932378346043834E-10  -3.5416877198493324E-12
3.05E-5                   1.6988132585405927E-9    7.606456954118867E-10    1.5084871325980696E-10   1.1577219609596792E-10   4.2147805953809244E-11   -1.496777784773583E-9    -9.485701806519754E-10   -4.099213000200321E-10   -2.920181584903985E-10   -2.1356169197436066E-10  -1.0175397989123199E-11
3.1E-5                    1.4630675495453022E-9    6.81195281699726E-10     1.6389196088579105E-10   1.3425813137180184E-10   5.4277078856675785E-11   -1.193017848210206E-9    -6.180429201452436E-10   -3.7709305051461556E-10  -2.841077268319835E-10   -2.2227751587485026E-10  -1.8117602940823952E-11
3.15E-5                   1.1044273729955673E-9    5.48098736269515E-10     1.7245502842111007E-10   1.500743286430549E-10    6.724364265012105E-11    -7.700388704141438E-10   -1.886405248617648E-10   -3.206655493268002E-10   -2.6276240673512E-10     -2.2380950418238686E-10  -2.747825264304072E-11
3.2E-5                    6.137196118819191E-10    3.5441415784446927E-10   1.7501500379383525E-10   1.628025297257402E-10    8.0489971187529E-11      -2.1938835323092794E-10  3.457828505773203E-10    -2.3995626692303965E-10  -2.2341138330963437E-10  -2.1588276500263438E-10  -3.840559168680807E-11
3.25E-5                   -1.7929678646952712E-11  9.928553697378215E-11    1.6965342047944902E-10   1.71918672225493E-10     9.334271652865282E-11    4.673847039615723E-10    9.873072563169828E-10    -1.3418105733901993E-10  -1.6199541087928388E-10  -1.9662187784365312E-10  -5.088060640088712E-11
3.2999999999999996E-5     -7.968994670336902E-10   -2.1496029899537826E-10  1.5443576152888234E-10   1.7673508470659847E-10   1.0528650727287645E-10   1.294546655027688E-9     1.7307822295332901E-9    -1.899496351263136E-12   -7.647844631229418E-11   -1.6485166019542243E-10  -6.457394668830167E-11
3.35E-5                   -1.7208481267750148E-9   -5.86075014097713E-10    1.284836700274952E-10    1.7636265506912807E-10   1.1581868231903345E-10   2.2574184233376633E-9    2.5636544064225786E-9    1.5839788582308905E-10   3.284915745679976E-11    -1.1919941552260453E-10  -7.891530922042424E-11
3.4E-5                    -2.7760162110951656E-9   -1.0119425114787956E-9   9.200073169514939E-11    1.6981207261413452E-10   1.239784215839395E-10    3.340343479798632E-9     3.4681164772928155E-9    3.4766335247327463E-10   1.6431345124277108E-10   -5.7562174157139185E-11  -9.329057827372057E-11
3.45E-5                   -3.941181426083883E-9    -1.4883355955535534E-9   4.487132757088805E-11    1.5638087722930797E-10   1.2829704929370586E-10   4.517918134844148E-9     4.42214499224841E-9      5.657244469754471E-10    3.159088706522151E-10    2.203985430392523E-11    -1.0711568366479375E-10
3.5E-5                    -5.192307227513432E-9    -2.0069505964512895E-9   -1.4361347928005969E-11  1.3566082733753836E-10   1.273732661627027E-10    5.757426735857896E-9     5.3975989549771856E-9    8.100505871511722E-10    4.856986994575007E-10    1.202777092007236E-10    -1.196788854751651E-10
3.5499999999999996E-5     -6.5006866988079715E-9   -2.5543677848372287E-9   -8.775084740080437E-11   1.0651388787807567E-10   1.203107780873781E-10    7.020116109227463E-9     6.357975635953032E-9     1.074669861543678E-9     6.715264530899987E-10    2.363457159259504E-10    -1.2994473853250923E-10
3.6E-5                    -7.826033876196966E-9    -3.1117537063909034E-9   -1.7621307508943216E-10  6.596708300232038E-11    1.0648881857329501E-10   8.26065092516383E-9      7.2592875627357795E-9    1.3508834545911273E-9    8.702125296870368E-10    3.685874177865076E-10    -1.3659353631311582E-10
3.65E-5                   -9.113016917025624E-9    -3.656080912709415E-9    -2.7840886530727323E-10  9.819674876554591E-12    8.515077545778942E-11    9.425709156020727E-9     8.053243563768782E-9     1.629203813528501E-9     1.0767181630926795E-9    5.147846562773888E-10    -1.3831914934508573E-10
3.7E-5                    -1.0295576326212348E-8   -4.162820498309296E-9    -3.908871797022259E-10   -6.503831225011226E-11   5.538627424718422E-11    1.0453034214130434E-8    8.689084058661273E-9     1.9002087529454678E-9    1.283957574316487E-9     6.716820728878351E-10    -1.3411706305086033E-10
3.75E-5                   -1.1303811934133961E-8   -4.607770738642334E-9    -5.090460764675584E-10   -1.5878996152432407E-10  1.630396939508265E-11    1.1272120008880485E-8    9.11331588305595E-9      2.1537778250116084E-9    1.4832878549381424E-9    8.343244602092535E-10    -1.2327832901264304E-10
3.7999999999999995E-5     -1.2066404453487323E-8   -4.966102006400065E-9    -6.281003533516885E-10   -2.6895925889899756E-10  -3.2958109894601554E-11  1.1807186010787468E-8    9.27012134739792E-9      2.3782981956793083E-9    1.6650105877025592E-9    9.959480089661711E-10    -1.0507095802602866E-10
3.85E-5                   -1.2508976035347006E-8   -5.209979575672481E-9    -7.434961532846334E-10   -3.9199910299005144E-10  -9.316337332982776E-11   1.1981505841018254E-8    9.103882036871265E-9     2.5605932038497717E-9    1.8185583331927244E-9    1.1485919845693602E-9    -7.839411399577568E-11
3.9E-5                    -1.2553958027868245E-8   -5.307789161713441E-9    -8.508632660442953E-10   -5.244863641893909E-10   -1.64553333399124E-10    1.1721070109148909E-8    8.562174346800528E-9     2.6858624673103243E-9    1.9326464857429305E-9    1.2839223532571409E-9    -4.1769681328410606E-11
3.95E-5                   -1.2124217644179829E-8   -5.226159916524464E-9    -9.45917932291973E-10    -6.632726591857573E-10   -2.4633056989179244E-10  1.0957137496304194E-8    7.598090014571927E-9     2.737637500085742E-9     1.995532895034378E-9     1.3935404010235089E-9    6.212473541230697E-12
3.9999999999999996E-5     -1.114814927731502E-8    -4.933408653905889E-9    -1.0242213119741247E-9   -8.048918522362921E-10   -3.3651860540313317E-10  9.629321161234001E-9     6.173146019534237E-9     2.6987694308988177E-9    1.995264755503835E-9     1.4685595345369553E-9    6.628552451715192E-11
4.0499999999999995E-5     -9.564756489253298E-9    -4.40228680558249E-9     -1.080400444021384E-9    -9.446370372987342E-10   -4.323108213384773E-10   7.689977906199174E-9     4.2616961357972E-9       2.553482598348438E-9     1.920062995292378E-9     1.4991302975146979E-9    1.3820832522092026E-10
4.1E-5                    -7.329254233152983E-9    -3.6110614833008846E-9   -1.1073097996812961E-9   -1.075864010591874E-9    -5.30622833322037E-10    5.108564813430691E-9     1.8553646806361117E-9    2.2891709997631627E-9    1.7591121030242966E-9    1.4748804358899623E-9    2.209788937435055E-10
4.15E-5                   -4.418205750497546E-9    -2.5439568384129994E-9   -1.096303610095073E-9    -1.1901231415199724E-9   -6.283439589694289E-10   1.8751834996611178E-9    -1.0342883030666977E-9   1.89699800954527E-9      1.503546267968878E-9     1.3862847694639028E-9    3.1324637359576854E-10
4.2E-5                    -8.321004959141902E-10   -1.1930091799603955E-9   -1.038742153463914E-9    -1.2779923374973549E-9   -7.219091234289091E-10   -1.995600723810525E-9    -4.374615988118699E-9    1.3716197150434342E-9    1.1471248679008003E-9    1.2257686043693382E-9    4.1339286113796806E-10
4.2499999999999996E-5     3.4036800756020014E-9    4.382432490504153E-10    -9.274492739132444E-10   -1.3298318013077243E-9   -8.06515424365666E-10    -6.46016914149887E-9     -8.110889599899344E-9    7.109019333717547E-10    6.864815156918951E-10    9.876319028494124E-10    5.191020615598074E-10
4.2999999999999995E-5     8.236201069934552E-9     2.3316438093694057E-9    -7.572832790730638E-10   -1.3362075056059208E-9   -8.759063549070436E-10   -1.1442114375981219E-8   -1.216513698485705E-8    -8.369057153937056E-11   1.2135331615962818E-10   6.675439233357012E-10    6.268060228074222E-10
4.35E-5                   1.3580380285291313E-8    4.454395463909766E-9     -5.253818310149712E-10   -1.288492482825604E-9    -9.231030274502321E-10   -1.683114964327304E-8    -1.6435675706992925E-8   -1.0058767629006028E-9   -5.447744100382212E-10   2.6307793466032515E-10   7.315889562173939E-10
4.4E-5                    1.931612071472253E-8     6.7614515503275405E-9    -2.3161565353671375E-10  -1.179722086022487E-9    -9.413703757994479E-10   -2.248463959282314E-8    -2.0798027763201128E-8   -2.04307273693229E-9     -1.3036663263058437E-9   -2.246282772977645E-10   8.276939991585309E-10
4.45E-5                   2.5289234383858405E-8    9.197305190712114E-9     1.21248006552346E-10     -1.004944375611269E-9    -9.246632562626955E-10   -2.8230331006603262E-8   -2.5107038925241207E-8   -3.175582491672213E-9    -2.141606523905554E-9    -7.895338398263525E-10   9.091729286448593E-10
4.4999999999999996E-5     3.131403045698806E-8     1.1695540153679992E-8    5.280080536142099E-10    -7.60747727311084E-10    -8.676650047541225E-10   -3.386893274640166E-8    -2.919965943239676E-8    -4.3770301343917675E-9   -3.039516223861295E-9    -1.420685265152737E-9    9.701220808797845E-10
4.5499999999999995E-5     3.717559101009296E-8     1.417734407390135E-8     9.813480587849502E-10    -4.4485010573752315E-10  -7.657722374534672E-10   -3.917655657184358E-8    -3.289827418834872E-8    -5.6158010195349644E-9   -3.97369901060018E-9     -2.102977900033806E-9    1.0044819984364384E-9
4.6E-5                    4.2633400318610104E-8    1.6551247981799658E-8    1.47139219411692E-9      -5.6644301491230835E-11  -6.149707335433129E-10   -4.3908743754806075E-8   -3.601515680553251E-8    -6.856618817268817E-9    -4.916483560124163E-9    -2.8176290719421586E-9   1.0059036484366943E-9
4.65E-5                   4.7428484069205485E-8    1.871546215687643E-8     1.9852146622150785E-9    4.016860771732963E-10    -4.1175494943311423E-10  -4.7807848498261306E-8   -3.835872662707233E-8    -8.061275865491822E-9    -5.836590429262706E-9    -3.542130370588012E-9    9.68069303002094E-10
4.7E-5                    5.1292815803780135E-8    2.0562663123359406E-8    2.507162449453391E-9     9.244940825997841E-10    -1.5375739120842208E-10  -5.061339154584265E-8    -3.9741521961955316E-8   -9.188292419860671E-9    -6.699717509194317E-9    -4.250179627449946E-9    8.853029688868913E-10
4.7499999999999996E-5     5.395850107743215E-8     2.198568947931145E-8     3.0194378822858972E-9    1.5026008287423667E-9    1.5886733647041945E-10   -5.2073355004710506E-8   -3.998893480312317E-8    -1.0192483861095868E-8   -7.46946766044441E-9     -4.9120190557235065E-9   7.530481076325713E-10
4.8E-5                    5.5167078762821155E-8    2.2882113674180908E-8    3.501902540647286E-9     2.1231580536336888E-9    5.224600128618803E-10    -5.19552965791941E-8     -3.8947738174745896E-8   -1.1025664989820014E-8   -8.108107671214515E-9    -5.495230163734751E-9    5.680571247518705E-10
4.85E-5                   5.468089279897931E-8     2.3156841026957352E-8    3.931555730221163E-9     2.7692721228275046E-9    9.301828314505757E-10    -5.005768758834038E-8    -3.649415311495622E-8    -1.1638587704829893E-8   -8.577082831032087E-9    -5.965868630102052E-9    3.284368589634626E-10