% Model:              Untitled.mph
% Version:            COMSOL 6.0.0.405
% Date:               Jul 16 2025, 17:47
% Dimension:          1
% Nodes:              401
% Expressions:        11
% Description:        Point graph
% Time (s)                Displacement field, Y component Displacement field, Y component Displacement field, Y component Displacement field, Y component Displacement field, Y component Displacement field, Y component Displacement field, Y component Displacement field, Y component Displacement field, Y component Displacement field, Y component Displacement field, Y component
0                         7.547970231638591E-38    1.1938755400172091E-36   1.9024309750956195E-34   1.997969160273739E-33    2.0329982425208996E-32   5.5569585573037297E-33   -5.656009491954453E-34   -5.205229661774013E-35   -1.6370439423288722E-33  -4.173098873668753E-33   -8.557723500721096E-33
5.0E-7                    -1.280962621517541E-29   -1.2398310443840114E-28  4.3214996050756035E-25   -7.547083552343182E-25   -3.345105356638173E-24   -7.1770678313496085E-25  2.1357197158714387E-25   7.978080542372123E-27    -2.961343703097862E-25   -1.43776591922191E-24    9.641040489826361E-25
1.0E-6                    -4.5607697332418583E-29  -4.166966125697789E-28   -2.6666067603846272E-24  -7.35928273437131E-25    6.0555937334567715E-24   -1.1430306684489409E-24  -9.329792407476805E-25   9.242783640794579E-27    2.775422718405138E-24    1.02555940039805E-23     1.0297170320820573E-24
1.5E-6                    3.669646137800358E-28    4.817586924345865E-28    1.1375189482500363E-24   1.2105010037795753E-23   2.456894764322704E-24    1.0159414038966002E-23   3.302471427383314E-24    -4.1629782819948016E-26  -8.595318085237874E-24   -4.2496656570178704E-23  -1.1456879406937451E-23
2.0E-6                    -1.9973164412661605E-27  -6.167258805161147E-27   5.323667771234759E-24    -7.536537779347914E-24   -1.1419540257001398E-22  -3.6174965116010964E-23  -3.562530465287268E-24   2.2368786417915283E-25   1.7517623676955642E-23   8.339640959762542E-23    2.868214742061719E-23
2.4999999999999998E-6     6.913690795111819E-27    2.18143706333237E-26     3.3727849225217367E-23   -2.932193223612686E-23   3.2282999727773835E-22   8.490021763634405E-23    6.343881332416971E-23    -9.254611542725442E-25   -3.32856435720606E-23    -3.806115942959431E-23   -2.4391282368740688E-23
3.0E-6                    -7.371125501464784E-27   3.7132841245103595E-26   -1.3079594747561028E-24  -2.4633337717648757E-22  -1.486223506304218E-23   -1.39885088014572E-23    1.0678274633702837E-22   -2.1019512800959203E-25  2.3512612354159333E-26   -1.0016309540607198E-23  -2.86624783279161E-23
3.5E-6                    -1.715309438664129E-26   -4.839806128010215E-26   -1.2024722934842623E-22  1.1159119636437236E-22   -6.424394988389251E-22   2.93192745066723E-23     -3.516567558710679E-22   3.8408514114160043E-25   3.77880059343722E-22     6.7873544054601015E-22   2.5508924854766753E-22
4.0E-6                    1.0083890140432276E-25   -4.784410381988917E-25   -6.518358863287352E-23   3.8704241808860546E-21   9.475705184397627E-22    2.5914111566189216E-23   -7.505434762787273E-22   -8.031051766230421E-24   -2.1318166178035964E-22  -3.010057312222392E-21   -3.293569440777987E-22
4.5E-6                    -1.6125354884088534E-25  -7.135592134152837E-25   1.1014877447437446E-22   6.326738598621657E-21    1.2630879097258974E-20   -3.7164488538484375E-22  2.1544657438522307E-21   1.71398489058703E-23     -3.657216136798994E-21   -4.131952419650296E-21   -6.065205827307717E-21
4.9999999999999996E-6     -8.076365812237399E-25   3.2155465413663527E-24   3.3358408583765233E-21   -8.339922307773136E-21   1.9901782776273994E-20   -2.385726018960544E-21   7.586522381761504E-21    1.502810414970111E-22    -2.237198136757451E-21   2.0133022628155718E-20   -1.068296362036315E-21
5.5E-6                    1.018738205641677E-24    1.3316401327813096E-23   1.0725897890327674E-20   -8.558357223066464E-21   -1.599951925740135E-20   4.45550558370665E-21     9.672646792809048E-22    2.0081260100483418E-23   2.685610183685289E-20    2.5672538058731685E-20   3.161319259594595E-20
6.0E-6                    6.773123348628882E-24    7.536179155527052E-24    -4.594278845263106E-21   1.3699945960839852E-19   5.806327482289498E-20    9.009780692387842E-20    -3.5237457173778997E-22  -1.3343071727048984E-21  4.531554465551769E-20    -9.82415280784705E-20    -2.106959591728737E-20
6.5E-6                    4.111904627959111E-24    -6.649387921515915E-23   -4.453317508984442E-20   4.778478585570492E-19    5.754891688265495E-19    1.0873783456440187E-19   1.134963892828443E-19    -2.549959526245488E-21   -1.2950523881342252E-19  -2.3199827127504887E-19  -1.9126790744418207E-19
7.0E-6                    -4.09811456320571E-23    -1.6700392812257184E-22  6.702156131850601E-20    7.730957212852739E-19    1.4847066561711782E-18   -3.4935275782050836E-19  4.1223612369861933E-19   2.404641509052575E-21    -4.246585379595308E-19   9.547514260887347E-20    -7.788616694744456E-20
7.499999999999999E-6      -1.0111618709107985E-22  1.3634173403634798E-22   3.799629194545584E-19    1.2259690158562101E-18   2.237505148758661E-18    -5.416464430482663E-20   7.555833358568339E-19    1.3145517650980151E-20   1.9205740378468436E-19   9.21553634701415E-19     -2.2573637631282564E-19
8.0E-6                    1.1829189542102562E-22   1.4592860253761107E-21   1.1483946903595233E-19   4.152173162654586E-18    4.448542549591969E-18    3.395352804372194E-18    1.2533256795216081E-18   7.427682922253572E-21    2.271628134750713E-18    7.186023381230343E-19    -2.820671705550449E-18
8.5E-6                    7.921640272315671E-22    2.5640955763929947E-21   -9.39454737743744E-19    1.3517442424129514E-17   1.6902320035897065E-17   5.811346992854391E-18    4.312870873989146E-18    -3.7223230249003324E-20  1.62624523043711E-18     -2.831966176238423E-18   -6.002579271313786E-18
9.0E-6                    4.298072599787929E-22    -1.5105116706647003E-21  6.557220050574097E-19    3.1147325564258825E-17   4.995745071002166E-17    1.60154816227221E-18     1.7759475398877533E-17   -1.0389859468657153E-19  -8.075470252413402E-18   -7.77405166102228E-18    -6.249898855336468E-18
9.499999999999999E-6      -3.2195243538782692E-21  -1.1921964113086324E-20  7.327625600917922E-18    5.907299049191904E-17    1.004045471863623E-16    1.4567191768744863E-17   5.0110986312568475E-17   -1.510529245669467E-19   -1.6551075904458462E-17  -3.1457726899407356E-18  -2.6221568777528952E-17
9.999999999999999E-6      -5.441950291526587E-21   -8.432339466970877E-21   8.860606552352143E-18    1.1775248960430082E-16   1.8730184928252084E-16   8.492577583904494E-17    9.758836436913329E-17    -4.072332866880253E-20   9.929480213019062E-18    1.752223372009294E-17    -1.1008434732458808E-16
1.05E-5                   7.67920657327496E-21     4.438942289971826E-20    -4.745656409336382E-18   2.6531606142007305E-16   4.491639462440556E-16    1.8679455548129862E-16   1.8557275690828978E-16   5.911262557318117E-19    6.980687885189889E-17    2.4510224793674647E-17   -2.421404943511025E-16
1.1E-5                    3.319648695987783E-20    1.3690658874857015E-19   -1.7394036143995326E-18  5.915397480749671E-16    1.1153342188265479E-15   3.019780506267648E-16    5.103586119574052E-16    1.2549887903016412E-18   4.851163922352413E-17    -3.262132103502044E-17   -4.1295817446922317E-16
1.15E-5                   2.2579238945657253E-20   1.6164146669671613E-19   6.955177872951971E-17    1.2077419134777334E-15   2.3010559512635097E-15   7.531566119492733E-16    1.4644146536203576E-15   -1.598825247000424E-18   -1.73480217830861E-16    -1.1647852390473974E-16  -1.010676768316844E-15
1.2E-5                    -6.266089050910617E-20   -1.437767057565338E-20   1.579536471679673E-16    2.3284329404108464E-15   4.19292218383629E-15     2.2131782233227383E-15   3.3704215474658725E-15   -1.077551244988496E-17   -3.830674826569138E-16   -6.471073086463632E-17   -2.898761937537811E-15
1.2499999999999999E-5     -1.0805721566156573E-19  -2.7328537545808974E-19  1.2514698928273833E-16   4.5272043636797686E-15   8.075973161267623E-15    5.1129470376298754E-15   6.756959809867699E-15    -1.447694469403063E-17   -5.060578721607673E-18   1.4301189651916835E-16   -6.73040490603765E-15
1.3E-5                    1.678275815863522E-19    2.676130002944831E-19    8.272231524572782E-17    9.064949724794233E-15    1.7095589320540774E-14   1.0113341403144231E-14   1.4320980243079643E-14   1.036520454078541E-17    1.0071814826939125E-15   7.75869764447505E-17     -1.3591110825116676E-14
1.35E-5                   8.555520815319143E-19    3.4466959443830077E-18   5.216570480094422E-16    1.811883456172837E-14    3.5307252248502146E-14   2.1219773788166474E-14   3.3142726802043654E-14   4.2592597632098407E-17   1.1824280012441643E-15   -7.80980467085268E-16    -2.906982260094146E-14
1.4E-5                    1.363521593179538E-18    1.0205318693091897E-17   1.6135655923375397E-15   3.5384426358201644E-14   6.752258640129431E-14    4.874735424342044E-14    7.440715409344443E-14    -2.2999026586585967E-17  -1.2881714522077628E-15  -2.17640170077678E-15    -6.656037054328879E-14
1.45E-5                   8.810108257170993E-19    1.7079829335084694E-17   2.7433112350674324E-15   6.824990801720193E-14    1.2608331242203716E-13   1.0822307593489138E-13   1.5472522433655938E-13   -2.409120539321051E-16   -5.045924831378358E-15   -3.3090876342034196E-15  -1.4532532727450286E-13
1.4999999999999999E-5     8.584134882561332E-19    1.9159773355934932E-17   4.194004608719067E-15    1.310912202379421E-13    2.4399263580609704E-13   2.2117836431870482E-13   3.1043390645123703E-13   -3.954103106852043E-16   -4.696464090963877E-15   -4.966766197269E-15      -2.9581163456183883E-13
1.55E-5                   7.345412757513058E-18    2.8783064453613175E-17   9.582575049762471E-15    2.4592820507674686E-13   4.827014098469907E-13    4.3358905990256875E-13   6.252099380628762E-13    -2.069324872672746E-16   2.546194691186401E-15    -1.1328802149708657E-14  -5.915985214460115E-13
1.6E-5                    2.6557994104716617E-17   9.799706954937223E-17    2.493232132894647E-14    4.3985027366783037E-13   9.335290740484386E-13    8.548410743126232E-13    1.2497924037784072E-12   -9.200469630095368E-17   8.373190192960447E-15    -2.897706810270951E-14   -1.1903001422893466E-12
1.6499999999999998E-5     5.402353602770426E-17    3.074346237899461E-16    5.69103789680324E-14     7.519079449829605E-13    1.7414216977226004E-12   1.6856233318981983E-12   2.4028131639979984E-12   -1.2961085454552551E-15  -2.5220166334436075E-15  -6.492597113133423E-14   -2.3348776267563917E-12
1.7E-5                    8.108538038425592E-17    7.043873301766004E-16    1.2040457439564486E-13   1.2680431261148417E-12   3.1711305941949034E-12   3.1965295653147733E-12   4.391165612872229E-12    -4.316646588801288E-15   -3.370357312902028E-14   -1.2756092610422005E-13  -4.337089129292785E-12
1.75E-5                   1.4194646695507576E-16   1.2571911444353565E-15   2.517673954203634E-13    2.1810512853685763E-12   5.672305059409078E-12    5.698167378864177E-12    7.692382229094673E-12    -7.670395427014807E-15   -6.73944146188886E-14    -2.310584233261947E-13   -7.658004533139745E-12
1.8E-5                    3.544346189641356E-16    1.9912574182362025E-15   4.997009911198242E-13    3.841329546391087E-12    9.861843454495516E-12    9.632677885514277E-12    1.3008125408785334E-11   -1.0881512565292312E-14  -8.766214463083627E-14   -4.0378298227718205E-13  -1.3048968415140275E-11
1.85E-5                   8.603785440688624E-16    3.4607268415222502E-15   8.886051647325194E-13    6.757814496397824E-12    1.6346906819547314E-11   1.575484031462221E-11    2.1020898163113054E-11   -1.9833578701486907E-14  -1.1735118291023366E-13  -7.057656449432863E-13   -2.1361418078088337E-11
1.8999999999999998E-5     1.731906183237659E-15    7.404879215518352E-15    1.4284604465233952E-12   1.1511778870473157E-11   2.528864638786328E-11    2.4931443315588908E-11   3.169621345810267E-11    -4.4883800815129624E-14  -2.1654746715044726E-13  -1.2536566517962334E-12  -3.274240620748311E-11
1.95E-5                   3.1449995940208655E-15   1.6892482308907018E-14   2.262307880068327E-12    1.853285287597921E-11    3.5730849263976515E-11   3.7086815951538456E-11   4.356350373813686E-11    -8.925904282527428E-14   -4.324429909058907E-13   -2.234451732001637E-12   -4.5845866298222257E-11
1.9999999999999998E-5     5.9049678285698194E-15   3.533995085463304E-14    3.887811160731978E-12    2.77251978249872E-11     4.525367589031435E-11    4.995178530758058E-11    5.393990518353526E-11    -1.474095013372118E-13   -7.767527874930849E-13   -3.89253538092918E-12    -5.822654192502009E-11
2.05E-5                   1.1792422821895745E-14   6.573434149015212E-14    7.195437161117801E-12    3.808373089290106E-11    5.084586790496548E-11    5.942594779503516E-11    6.04819364461139E-11     -2.3581659083503935E-13  -1.309898057794992E-12   -6.493851794415677E-12   -6.784570797517562E-11
2.1E-5                    2.3396788325528373E-14   1.1425477490341323E-13   1.312367036338741E-11    4.755316469574223E-11    5.082824795069995E-11    6.221439600666214E-11    6.280958886046093E-11    -4.354361868338796E-13   -2.2724268952818E-12     -1.0248945059607899E-11  -7.386677867471031E-11
2.1499999999999997E-5     4.4564209557324286E-14   2.0159955772766422E-13   2.206697104876557E-11    5.327557565279454E-11    4.587556472362391E-11    5.834980885217017E-11    6.228331062395106E-11    -8.814899770191982E-13   -4.066941769411147E-12   -1.5131386744634397E-11  -7.561263877194552E-11
2.2E-5                    8.300197831250322E-14    3.771773633666789E-13    3.339754543935631E-11    5.221041888037953E-11    3.755705902266248E-11    5.053748793418726E-11    5.989300609965364E-11    -1.6811272495263264E-12  -6.974830556527882E-12   -2.0601945313231762E-11  -7.131530719021002E-11
2.2499999999999998E-5     1.5414270355778783E-13   7.22023272121906E-13     4.529307840999232E-11    4.211587702749068E-11    2.5963785828788132E-11   4.100873655884731E-11    5.4596092256305865E-11   -2.8567186999761843E-12  -1.0783168640911827E-11  -2.5460418571506676E-11  -5.883688717722186E-11
2.3E-5                    2.8384892054780505E-13   1.3295051867329518E-12   5.481725317759821E-11    2.2753970155202854E-11   9.647122754465541E-12    2.9755510895611644E-11   4.385251588716758E-11    -4.424051635725093E-12   -1.4687595968302844E-11  -2.810650188480136E-11   -3.749976824853931E-11
2.35E-5                   5.114893751952923E-13    2.271418452972665E-12    5.835624843138932E-11    -3.364640348636102E-12   -1.1965591587824623E-11  1.5497426668638952E-11   2.5232680776122484E-11   -6.5084670735700955E-12  -1.764457601877976E-11   -2.7162853777069664E-11  -8.181289030165946E-12
2.4E-5                    8.979379815143702E-13    3.5705926661454403E-12   5.278212688763833E-11    -3.163990936513762E-11   -3.722846562536489E-11   -3.5301456347750237E-12  -2.967726835488598E-12   -9.215634336361928E-12   -1.8901769199807242E-11  -2.2014369747467694E-11  2.866473627926639E-11
2.45E-5                   1.5327467360070158E-12   5.187091271474834E-12    3.721207166264108E-11    -5.7488560555124524E-11  -6.411072986890876E-11   -3.053662260750059E-11   -4.2256978559705336E-11  -1.219641396582833E-11   -1.821413824071304E-11   -1.2915383243818655E-11  7.420047993643017E-11
2.4999999999999998E-5     2.517989279141419E-12    6.996182439797496E-12    1.4031444355523099E-11   -7.863564216754192E-11   -9.285378011882185E-11   -7.001364353241461E-11   -9.438550670361063E-11   -1.4372304399769424E-11  -1.556683177420651E-11   -8.311300002972413E-13   1.29946340050609E-10
2.55E-5                   3.913050226707588E-12    8.738779267818643E-12    -1.2379350998898067E-11  -9.626282393617031E-11   -1.2644890530550615E-10  -1.2472198638077993E-10  -1.6091309724338617E-10  -1.4387272625599425E-11  -1.0808995712175856E-11  1.2676066260173515E-11   1.9607705750552234E-10
2.6E-5                    5.6652718198271945E-12   9.980132537128455E-12    -3.882124521805465E-11   -1.1473098919919929E-10  -1.691095954659911E-10   -1.9341760717318914E-10  -2.416270070710084E-10   -1.1615112803071907E-11  -3.783511437168802E-12   2.5733620246087706E-11   2.7162741018847343E-10
2.65E-5                   7.58328323636907E-12     1.01665882293357E-11     -6.556004175288995E-11   -1.4009740721047587E-10  -2.2410461937072931E-10  -2.723604681588701E-10   -3.324252680646544E-10   -6.7502962737980435E-12  5.0545336182762595E-12   3.714101707637269E-11    3.5560560581066584E-10
2.7E-5                    9.381949297056542E-12    8.83417645648944E-12     -9.533882686510603E-11   -1.7747430931747712E-10  -2.9111792008051876E-10  -3.574825552504517E-10   -4.254112170937337E-10   -1.2830380578580347E-12  1.4361517185842159E-11   4.7761783127956705E-11   4.4652013373695544E-10
2.7499999999999998E-5     1.075783114889081E-11    5.882906808684315E-12    -1.301897246673435E-10   -2.279498651083095E-10   -3.6428773985491656E-10  -4.4364069300706457E-10  -5.133362980816065E-10   3.665567463989517E-12    2.275467054119136E-11    6.086908736443173E-11    5.407890995082571E-10
2.8E-5                    1.1422738923316125E-11   1.7066529636818974E-12   -1.6951495170812788E-10  -2.8707051587278193E-10  -4.338709371899682E-10   -5.238574503865686E-10   -5.947929751683904E-10   8.048417646404445E-12    3.033387907909875E-11    8.026855370898773E-11    6.329654806603804E-10
2.8499999999999998E-5     1.107710411774208E-11    -2.9825552723120793E-12  -2.110784305318113E-10   -3.4638374256702967E-10  -4.914384275025724E-10   -5.924875058455871E-10   -6.734683878815465E-10   1.2694855334327658E-11   3.927145975648687E-11    1.0712772575057037E-10   7.1791770727466E-10
2.9E-5                    9.391866790711336E-12    -7.567656448196227E-12   -2.529442422604293E-10   -3.96953719519708E-10    -5.334174994930623E-10   -6.488948236951566E-10   -7.51382266725543E-10    1.8703756312464766E-11   5.242024285513975E-11    1.3827497056152682E-10   7.912631614203621E-10
2.95E-5                   6.085312694088431E-12    -1.1901963473650921E-11  -2.938280680268745E-10   -4.3220255380832403E-10  -5.594124194038178E-10   -6.956144140531271E-10   -8.237788665874966E-10   2.6976998226429984E-11   7.091242455572296E-11    1.6793355606556145E-10   8.46805918172975E-10
2.9999999999999997E-5     1.0868036362658377E-12   -1.640298814591343E-11   -3.3204784782644795E-10  -4.488031498843688E-10   -5.686998866539236E-10   -7.325703218549824E-10   -8.80109160849898E-10    3.793243428817688E-11    9.298570313222712E-11    1.9175761745494952E-10   8.755413308011835E-10
3.05E-5                   -5.350441170052642E-12   -2.185292559890374E-11   -3.649772959806333E-10   -4.463399438300986E-10   -5.597026502996715E-10   -7.542201661056062E-10   -9.072725362716365E-10   5.129568218261452E-11    1.1518509859174078E-10   2.096508958039228E-10    8.695059960491812E-10
3.1E-5                    -1.2743814653643465E-11  -2.9061413391596384E-11  -3.8957115041371923E-10  -4.263640211289485E-10   -5.311777789803802E-10   -7.514024929598557E-10   -8.919208133279984E-10   6.607876885873192E-11    1.3477493547056462E-10   2.247525367139698E-10    8.256036025064425E-10
3.15E-5                   -2.0681853130036104E-11  -3.850183383816081E-11   -4.0295650863592606E-10  -3.9046097475027786E-10  -4.808605682069931E-10   -7.138668668292424E-10   -8.242292704888649E-10   8.081256751010041E-11    1.5118211656251365E-10   2.3947081017575597E-10   7.428051494744726E-10
3.2E-5                    -2.912865459643317E-11   -4.995428062485166E-11   -4.0266337448084053E-10  -3.3763044626310466E-10  -4.022208810161917E-10   -6.315790691182644E-10   -7.023429550641087E-10   9.391569120484771E-11    1.6546642795742491E-10   2.521290602923589E-10    6.154232362876234E-10
3.25E-5                   -3.8502812036409496E-11  -6.229695803134289E-11   -3.8700098016585005E-10  -2.629351634023487E-10   -2.8432880591067017E-10  -4.963956162103549E-10   -5.30049359184938E-10    1.0419774647189615E-10   1.7860438265871814E-10   2.57034803569744E-10     4.3169392435835636E-10
3.2999999999999996E-5     -4.947642628660547E-11   -7.37457680380229E-11    -3.5525305975410187E-10  -1.5897916644606025E-10  -1.1666236865578523E-10  -3.038595839318155E-10   -3.0679946219796875E-10  1.1155309689051906E-10   1.8995134647814706E-10   2.47516663826633E-10     1.800884762411986E-10
3.35E-5                   -6.260195021137705E-11   -8.267438011792007E-11   -3.0645285370621974E-10  -1.911198738924494E-11   1.050473542412979E-10    -5.2984933129990857E-11  -2.2417349808453744E-11  1.1735456624172588E-10   1.9663048658900024E-10   2.1907713367678212E-10   -1.4415820053670308E-10
3.4E-5                    -7.787942446562304E-11   -8.860144193601639E-11   -2.369290274823053E-10   1.602314068429414E-10    3.7673300469444186E-10   2.55293026554062E-10     3.349616595086426E-10    1.2359197039920757E-10   1.9402557999717092E-10   1.7035589460267582E-10   -5.385374040793847E-10
3.45E-5                   -9.437200008250082E-11   -9.250440327021556E-11   -1.390030724498202E-10   3.7899087146251007E-10   6.887159353027912E-10    6.184425829249524E-10    7.675845065707263E-10    1.3065073479388753E-10   1.773982546076061E-10    1.0190035261755856E-10   -9.9635641187562E-10
3.5E-5                    -1.1011671117363851E-10  -9.58919238722567E-11    -2.7564905510088518E-12  6.334966330476649E-10    1.0304654131628362E-9    1.0318195437445747E-9    1.2671048623592778E-9    1.353730538276497E-10    1.4409419034439786E-10   1.4327187473512015E-11   -1.5083488510624772E-9
3.5499999999999996E-5     -1.2263986016995537E-10  -9.905233481735813E-11   1.7998659851744958E-10   9.162486726970517E-10    1.393522217060362E-9     1.4893416421701621E-9    1.8208329174807658E-9    1.315537709669991E-10    9.478468867512291E-11    -9.258501591516792E-11   -2.06236139512659E-9
3.6E-5                    -1.3001978574695436E-10  -9.984453096388418E-11   4.1182916694099246E-10   1.2164616452470203E-9    1.7707519992245952E-9    1.984024278586945E-9     2.41337274347523E-9      1.1315556891533487E-10   3.2277459882568146E-11   -2.1928258277364504E-10  -2.6434504325091958E-9
3.65E-5                   -1.3180065373781627E-10  -9.429158159705542E-11   6.875862938647142E-10    1.5219771028652743E-9    2.1535590157933965E-9    2.5054381045909308E-9    3.0240981143513588E-9    7.793085931296371E-11    -4.146360337596313E-11   -3.648452008572201E-10   -3.2347296497023907E-9
3.7E-5                    -1.2886172375106144E-10  -7.88012155211184E-11    9.941937805199808E-10    1.8209001443447566E-9    2.5300525054624836E-9    3.035705773059949E-9     3.629493505466523E-9     2.8533252396655267E-11   -1.2730449994937957E-10  -5.258273427992321E-10   -3.817548971336046E-9
3.75E-5                   -1.2204903039377908E-10  -5.2235274728762196E-11  1.3132859167160065E-9    2.101188502987546E-9     2.8849938775898454E-9    3.5491353965278926E-9    4.20855946151788E-9      -2.9708954688800996E-11  -2.2783366354609498E-10  -6.967219415854778E-10   -4.3702055656004565E-9
3.7999999999999995E-5     -1.1050533333818901E-10  -1.6041678285317954E-11  1.6260122070524817E-9    2.349231885876149E-9     3.199933194472148E-9     4.016483899859631E-9     4.740952370571349E-9     -9.245013377668963E-11   -3.442133401954905E-10   -8.715949403795118E-10   -4.865390850064352E-9
3.85E-5                   -9.11230376710964E-11    2.7484747752523784E-11   1.9172513293422443E-9    2.5499668069995153E-9    3.4526181432837648E-9    4.409100712334076E-9     5.198630533554896E-9     -1.5864000580842406E-10  -4.740272306646366E-10   -1.0449827069248609E-9   -5.267834469887945E-9
3.9E-5                    -5.97988057917575E-11    7.698711787645789E-11    2.1759101133915163E-9    2.688683029687452E-9     3.6170249764099495E-9    4.699293802430161E-9     5.543108708110933E-9     -2.3017238575763097E-10  -6.117605540181998E-10   -1.2109512566118648E-9   -5.535218359086161E-9
3.95E-5                   -1.3733097731840294E-11  1.323498262637102E-10    2.3914280770914944E-9    2.7518771481088068E-9    3.665631968848907E-9     4.8586439429771685E-9    5.7321380082926004E-9    -3.0965641157513694E-10  -7.507546214338234E-10   -1.3615716067417658E-9   -5.624086189921481E-9
3.9999999999999996E-5     4.6862560051639805E-11   1.937839523292957E-10    2.5503366068956905E-9    2.725541320694199E-9     3.5734444681230543E-9    4.8576589408553786E-9    5.726645599477674E-9     -3.980586470235656E-10   -8.845512609457927E-10   -1.4867811235500664E-9   -5.497278786176362E-9
4.0499999999999995E-5     1.188501901761776E-10    2.609568485399246E-10    2.6361365091690697E-9    2.5927591603249637E-9    3.321381159922936E-9     4.667436509820255E-9     5.491848970609564E-9     -4.934838253514941E-10   -1.0068832047091294E-9   -1.575598331991909E-9    -5.126756728520643E-9
4.1E-5                    1.9793440526204023E-10   3.3274305382421647E-10   2.6317996664105928E-9    2.3338725119296545E-9    2.8969152780201924E-9    4.262136489498841E-9     4.9968560354882846E-9    -5.913361274393115E-10   -1.1110277514765006E-9   -1.616945035426273E-9    -4.490464927171944E-9
4.15E-5                   2.809478967011155E-10    4.07205974122681E-10     2.5218606771254518E-9    1.9304551606079222E-9    2.2920997617674696E-9    3.621547760318476E-9     4.216861359135551E-9     -6.853676605371717E-10   -1.1894297060739455E-9   -1.5995247947403859E-9   -3.568682738902838E-9
4.2E-5                    3.672961292308766E-10    4.814942962388659E-10    2.292621015419536E-9     1.3712953179240975E-9    1.501408862187611E-9     2.733221132082789E-9     3.1355634983908758E-9    -7.688792200045212E-10   -1.2339593926400366E-9   -1.5122722754311016E-9   -2.345444065442415E-9
4.2499999999999996E-5     4.5868610066545894E-10   5.519170613411606E-10    1.931843593582293E-9     6.568454784156704E-10    5.220246547499433E-10    1.5930930865098612E-9    1.7457659873660863E-9    -8.354838185163778E-10   -1.2366972080735719E-9   -1.3462564795986335E-9   -8.146023187092399E-10
4.2999999999999995E-5     5.570692468155355E-10    6.144026998012733E-10    1.4299978741615945E-9    -2.0091713943595494E-10  -6.430753032210424E-10   2.043656688192419E-10    5.0333750012942173E-11   -8.792615700524247E-10   -1.1907347150086565E-9   -1.096379672569039E-9    1.0142661523471927E-9
4.35E-5                   6.617286816672337E-10    6.649676707084832E-10    7.830914133190849E-10    -1.1832883788573703E-9   -1.981350965409537E-9    -1.4233850962626554E-9   -1.935421300270156E-9    -8.945900874054194E-10   -1.0902883471720025E-9   -7.60871303673376E-10    3.1137396947256275E-9
4.4E-5                    7.672333917789803E-10    6.997058915198222E-10    -5.2102768155580504E-12  -2.2704783662774256E-9   -3.4686205387641263E-9   -3.2721306993645393E-9   -4.182064480530547E-9    -8.760567494620536E-10   -9.300394728763829E-10   -3.393216989075331E-10   5.4400654686213845E-9
4.45E-5                   8.637528718657563E-10    7.143840720638838E-10    -9.243243706203916E-10   -3.4432209669328E-9      -5.069251069336284E-9    -5.310050572474728E-9    -6.645643469846403E-9    -8.185607316661954E-10   -7.047399880384489E-10   1.6799983149402716E-10   7.935798846666347E-9
4.4999999999999996E-5     9.397343832526668E-10    7.042026053567197E-10    -1.9595878123308728E-9   -4.678924498318832E-9    -6.737551231922632E-9    -7.486502456013473E-9    -9.266454788151509E-9    -7.174537451947225E-10   -4.101887814749185E-10   7.582703306719724E-10    1.0531170567459868E-8
4.5499999999999995E-5     9.852659676237565E-10    6.640812511967365E-10    -3.0937689615323447E-9   -5.945552838512023E-9    -8.419144009997848E-9    -9.732027166986348E-9    -1.1966984675968213E-8   -5.687798626131106E-10   -4.512669629316233E-11   1.4232109689210457E-9    1.3143635180533019E-8
4.6E-5                    9.940495223999998E-10    5.893010543793926E-10    -4.304619062308246E-9    -7.197762855650897E-9    -1.0052008795609358E-8   -1.196439378344846E-8    -1.4652266246160649E-8   -3.6996644864922406E-10  3.8766376977951116E-10   2.1474170285928146E-9    1.56772208878125E-8
4.65E-5                   9.630674079075036E-10    4.761204686345548E-10    -5.559458739746074E-9    -8.377680960347044E-9    -1.1567785481797322E-8   -1.4096338591172042E-8   -1.72141379914621E-8     -1.2091560481590103E-10  8.818050603056984E-10    2.9087120705008354E-9    1.802397459668878E-8
4.7E-5                    8.906332039630459E-10    3.2218106105587696E-10   -6.810578909181797E-9    -9.419975451533491E-9    -1.2894107459561045E-8   -1.6039577793155515E-8   -1.953678054307976E-8    1.7539154689542224E-10   1.428068605797528E-9     3.6798412433745835E-9    2.006823080308645E-8
4.7499999999999996E-5     7.743495754346412E-10    1.267336000988191E-10    -7.994949533199247E-9    -1.0259128738906024E-8   -1.3957992845162383E-8   -1.7704141190954505E-8   -2.150074022606213E-8    5.135879569345202E-10    2.013956747731766E-9     4.430461785951067E-9     2.1692167861309764E-8
4.8E-5                    6.102350430134708E-10    -1.0929067054329705E-10  -9.039397250724305E-9    -1.0835994588892561E-8   -1.4689197975713549E-8   -1.899669696347995E-8    -2.2986004682578525E-8   8.873321001580149E-10    2.6224971467126597E-9    5.128681325711403E-9     2.278056745764323E-8
4.85E-5                   3.9337480969860256E-10   -3.8338357017817207E-10  -9.869711715112147E-9    -1.1101357614208324E-8   -1.5022156782141122E-8   -1.9821424134431188E-8   -2.3876167970142594E-8   1.2898318859993668E-9    3.231846805949487E-9     5.741801948187003E-9     2.3224422586241888E-8