% Model:              analysis.mph
% Version:            COMSOL 6.0.0.405
% Date:               Jul 3 2023, 13:18
% Dimension:          1
% Nodes:              10001
% Expressions:        11
% Description:        Point graph
% Time (s)                Displacement field, Y component Displacement field, Y component Displacement field, Y component Displacement field, Y component Displacement field, Y component Displacement field, Y component Displacement field, Y component Displacement field, Y component Displacement field, Y component Displacement field, Y component Displacement field, Y component
0                         0                        0                        0                        0                        0                        0                        0                        0                        0                        0                        0
1.0E-6                    -7.736548964347936E-50   5.659902725346379E-50    -5.476032550994274E-48   -2.0940024343389087E-46  -2.104303573016883E-46   4.04072153793943E-46     -3.5245550677588643E-44  -4.020620926172424E-43   -1.193227074130181E-43   -5.345675733895014E-43   -1.8489787158818174E-43
2.0E-6                    5.291691616854017E-49    -7.382424830308471E-49   5.838475789778588E-47    1.8660573726846695E-45   4.680513245975811E-45    4.3267095822188664E-45   6.896536227005882E-43    6.107382581410763E-42    3.643333477172236E-42    9.518808004033671E-42    2.5802844702483283E-42
3.0E-6                    -1.892663198382494E-48   -1.747840272540088E-48   -5.2488795150288935E-46  -1.2277340015417152E-44  -6.674760571099253E-44   -1.674044213629226E-43   -6.825893471691045E-42   -3.9607760989162413E-41  -3.670145614869353E-41   -7.410124641056501E-41   -1.6013687341535762E-41
4.0E-6                    1.1298935832938617E-47   3.992828778018701E-47    2.9287849841717004E-45   4.801657347220263E-44    3.810895566135787E-43    1.1508963067631227E-42   2.721816483334131E-41    8.586880906663296E-41    1.364264036954276E-40    2.229144388034162E-40    3.453029844139729E-41
4.9999999999999996E-6     -8.436287085295043E-47   -2.4695669441589746E-46  -1.0379685208636402E-44  -8.67496707657409E-44    -9.144798003628654E-43   -3.228246660440652E-42   -2.014486162644279E-41   1.6115468194887364E-40   -1.0609372357379989E-40  8.506446467420111E-41    5.388647748024352E-41
6.0E-6                    2.3578055427843245E-46   8.018046402634795E-46    1.4994886795292156E-44   -7.163912972359037E-44   -6.414157207184256E-43   -2.557097054941203E-43   -1.870107768673807E-40   -1.0619101951349585E-39  -7.184312627000367E-40   -2.226420123227039E-39   -3.710876890043047E-40
7.0E-6                    2.44010655617087E-46     -1.1845284829542835E-45  4.962159895009751E-44    7.084806035729502E-43    8.870015067624668E-42    2.5181837359710113E-41   4.90395213489457E-40     6.832998001078517E-40    1.8773114879461456E-39   3.5748052416841174E-39   3.038591559901064E-40
8.0E-6                    -2.3393714955191443E-45  -1.1465887651991673E-45  -2.8616077254994795E-43  -1.2034552935405778E-42  -1.3546441439520905E-41  -4.46607322523359E-41    3.5854343892133997E-40   5.308197871699512E-39    7.0853082284076945E-40   8.869466869450875E-39    1.3818054426754787E-39
9.0E-6                    1.8340087363200685E-45   1.0953530707339236E-44   3.302926264441152E-43    -9.1936649658849E-43     -2.900114210367568E-41   -7.618059506332816E-41   -2.6645214131634645E-39  -8.350927187187888E-39   -6.646579135751536E-39   -2.852836970820911E-38   -2.732638412163996E-39
9.999999999999999E-6      9.180070735803077E-45    -2.7756062258901786E-44  1.2722962445895412E-42   6.102944179494895E-42    1.0292222466444514E-40   2.9241434844247556E-40   6.5049671144264114E-40   -1.9871270791724917E-38  -8.12838436773589E-40    -2.1761497649424077E-38  -2.516290302590114E-39
1.1E-5                    -1.4365210898492372E-44  9.129596317729896E-45    -4.0030483750801216E-42  -4.787867303446898E-42   3.3879889505457656E-41   1.3161893717271177E-40   9.272101467287514E-39    4.4494765650886954E-38   1.045239869524059E-38    1.3710174052239862E-37   1.120479591395903E-38
1.2E-5                    -1.9674901559566743E-44  1.4788513987596688E-43   -1.8441973223547278E-42  -1.203874053166792E-41   -4.379239656015947E-40   -1.2849311497917196E-39  -6.63185994684435E-39    7.127970759612724E-38    3.945751483127778E-38    3.8133167022596764E-38   -1.6598923009040814E-39
1.3E-5                    5.067196826108503E-44    -3.3550300873902264E-43  2.1112118563009857E-41   2.654244749384407E-41    8.84750354966273E-41     -7.57626465606914E-41    -2.6859660891761535E-38  -1.7385194737901358E-37  3.921925173730255E-40    -5.233117922008971E-37   -3.2887564758948835E-38
1.4E-5                    1.1318917686024218E-45   -1.7956442176629724E-43  -7.395761823065202E-42   -4.924324675979698E-42   1.3907914332506806E-39   4.8197683132015845E-39   2.6823414138073846E-38   -2.6620887459719024E-37  -3.518954211640387E-37   -7.198915590302737E-38   3.660034569256279E-38
1.4999999999999999E-5     -1.2527521399591602E-43  1.7650443595965024E-42   -7.854446516976715E-41   -7.926424503484893E-41   -4.599443755239139E-40   -5.070893217690909E-40   7.96027235779611E-38     5.538845798926786E-37    -7.088987178220456E-38   1.7443639992179082E-36   8.438232410598799E-38
1.6E-5                    2.650227552048872E-43    -1.7505439502483342E-42  5.632267908032905E-41    9.810111972909354E-41    -3.41024514360176E-39    -1.6010289651809018E-38  -7.499267155711128E-38   9.999372172583466E-37    1.9021700522918902E-36   3.232012966104835E-37    -1.9981077576034108E-37
1.7E-5                    3.672798622185302E-43    -5.12662923545137E-42    2.3079424973590524E-40   2.7395112300170105E-40   5.44660250230845E-40     2.8369875553857782E-39   -2.67718704900709E-37    -1.4667165254433362E-36  5.46497148691753E-37     -5.2629694865159615E-36  -2.528424986629844E-37
1.8E-5                    -1.885557103017993E-42   1.5012849160345796E-41   -2.005403343650737E-40   -1.341760476371307E-40   5.198851974790797E-39    4.6888530758093497E-38   1.0769419073798515E-37   -3.613696627629734E-36   -7.817295836228577E-36   -1.9670166401116077E-36  7.734419718798803E-37
1.8999999999999998E-5     -2.0860441878627492E-42  6.57665265853642E-42     -5.2395670584771015E-40  -1.3345811640967675E-39  2.1179870887495885E-39   -1.0653219732213897E-38  9.05886059504133E-37     2.9597017139899142E-36   -3.7036938618723894E-36  1.4384607758259234E-35   9.989020367386774E-37
1.9999999999999998E-5     9.205799128697041E-42    -7.777273536838645E-41   5.1606639421432124E-40   -1.8762437758172095E-39  4.361569193335916E-39    -1.217883489667303E-37   3.221871463322175E-37    1.2168950004388765E-35   2.621048780993834E-35    9.952163849216444E-36    -2.212695456062725E-36
2.1E-5                    1.3347481144749025E-41   1.8976721026565523E-41   6.9119510033206026E-40   5.621918015052642E-39    -8.29476176934655E-39    3.969755903605287E-38    -2.535058302391686E-36   -2.099085992389236E-36   2.027868624603807E-35    -3.4523730981862516E-35  -3.9690228861343095E-36
2.2E-5                    -3.5316883172895296E-41  3.2715522280200082E-40   -1.395930539741959E-39   1.7241847474644146E-38   -6.599721791816719E-38   2.9109243010019367E-37   -3.0287795247798484E-36  -3.606848288300397E-35   -7.227909336187983E-35   -4.051555355833752E-35   4.141832379497678E-36
2.3E-5                    -6.96662950174036E-41    -1.4945068478018764E-40  8.329827545317928E-40    -1.395186904610121E-38   -1.2942184353262733E-38  -1.5496783796795095E-37  4.803632644157906E-36    -1.7985945492345558E-35  -8.813463631961321E-35   6.715803296858028E-35    1.2775065545623498E-35
2.4E-5                    1.1050828337807337E-40   -1.1919498856275092E-39  5.918068132303E-39       -8.725317656268846E-38   2.6708987540033866E-37   -6.938339508626339E-37   1.2209623122722344E-35   8.493683199564447E-35    1.5660606145858546E-34   1.344661639123892E-34    -2.0008697056110258E-36
2.4999999999999998E-5     2.9406853515841453E-40   5.269210967107053E-40    -7.57963541275708E-39    -4.574522804355422E-39   2.1349500048314185E-37   5.531230281503723E-37    -2.665749851922156E-36   1.118773488464179E-34    3.072401217788998E-34    -8.167231966727557E-35   -3.0560631950899656E-35
2.6E-5                    -2.9263163856971296E-40  3.803191533028337E-39    -2.87628983499606E-38    3.0730506548669407E-37   -6.7987492461622125E-37  1.7875951233600642E-36   -3.225994224772037E-35   -1.2649492366382079E-34  -2.2255567975820666E-34  -3.60640772953358E-34    -1.731729090418963E-35
2.7E-5                    -1.055611924896974E-39   -1.2756247762897178E-39  1.651691941518235E-38    2.1473719040385197E-37   -9.873177453154732E-37   -1.6171887335088543E-36  -1.901423106701646E-35   -3.800594656725608E-34   -8.583598605030765E-34   -5.600803511949846E-35   4.913426105561879E-35
2.8E-5                    6.964003971522322E-40    -1.0675174281431229E-38  1.130176086263583E-37    -7.689441538187693E-37   1.0995437361954394E-36   -4.9215860870143785E-36  5.790421062202153E-35    -2.5523265531330237E-35  -1.6770793601204327E-35  7.4482441473207775E-34   7.071554360702331E-35
2.9E-5                    3.445449918705055E-39    2.531322169552393E-39    2.471815278278642E-38    -1.0705747709022502E-36  2.9137589236779144E-36   3.675653856744862E-36    8.576046500064663E-35    8.498456202067173E-34    1.870744782702694E-33    6.670892997842161E-34    -3.233022186153378E-35
2.9999999999999997E-5     -1.5404838177026458E-39  2.7081321041899574E-38   -3.26882677571423E-37    1.2612447281661003E-36   -6.243608169753051E-37   1.3382328089959677E-35   -5.723521877790426E-35   8.19286433915716E-34     1.2900939390344327E-33   -1.0098719183766439E-33  -1.4693427397974783E-34
3.1E-5                    -1.0907649803094345E-38  -5.763142100505904E-39   -3.1772024204245403E-37  3.2404780270190846E-36   -6.214495584979053E-36   -6.01236962395229E-36    -2.228538478884224E-34   -1.078196099489509E-33   -2.905919823809049E-33   -2.1309713344295432E-33  -7.540345858383503E-35
3.2E-5                    2.533380330387105E-39    -6.667349881068233E-38   6.528935337950845E-37    -8.626325824935716E-37   -2.494795828163696E-36   -3.420289396848038E-35   -5.313239124027382E-35   -2.7085687890658867E-33  -4.627578506143044E-33   1.7154173297176334E-34   1.523870088745004E-34
3.2999999999999996E-5     3.422162371007444E-38    1.6882956932706492E-38   1.3134086198985846E-36   -6.934574981703617E-36   9.747013728466088E-36    3.8110607933834055E-36   4.233577326192036E-34    -3.795685600084836E-34   2.067470096723036E-33    4.101418821972544E-33    2.5528245118799103E-34
3.4E-5                    2.628099015192707E-39    1.7435280915440349E-37   -6.75756683562168E-37    -1.633781177396206E-36   1.0252753904709123E-35   8.113797475843239E-35    4.570005882263546E-34    4.9465683267399194E-33   1.005559877348726E-32    3.290957797107031E-33    6.48505114056281E-35
3.5E-5                    -1.0234512979329705E-37  -3.7612264320384984E-38  -3.627662510301941E-36   1.1554096685538285E-35   -9.807971820994509E-36   2.2236009200992619E-35   -5.106301483813198E-34   5.553739945713684E-33    4.2166326640075005E-33   -4.144258380708256E-33   -2.599197553216883E-34
3.6E-5                    -5.122884983089731E-38   -4.88988383915575E-37    -9.030674748841293E-37   5.978648026761832E-36    -2.3081793800527575E-35  -1.7311591146903378E-34  -1.424460369020907E-33   -3.61710871113535E-33    -1.3838581969884521E-32  -9.296024422121394E-33   -4.3683751751756416E-34
3.7E-5                    2.720501456513388E-37    -1.6931713461930105E-38  7.595164359804634E-36    -1.8695075602782377E-35  -1.3757117831805751E-36  -1.3149966227207637E-34  -2.2798027179532718E-34  -1.3617351924360798E-32  -1.8319208900694126E-32  -2.0255693239421234E-33  -2.6714550290632117E-34
3.7999999999999995E-5     2.888466851335508E-37    1.3375872627725107E-36   6.943037847116997E-36    -1.1583730307261678E-35  3.387174157258196E-35    3.003577706386992E-34    2.765835088627912E-33    -7.764237384277347E-33   6.827186408293508E-33    1.2450288533745977E-32   3.2418527452770266E-34
3.9E-5                    -5.859762484048423E-37   6.190116501376576E-37    -1.2059900833398755E-35  3.834241240941361E-35    3.329779881441658E-35    4.423025264986496E-34    3.167672802973558E-33    1.4764053806166874E-32   3.4136342168104243E-32   1.5032547225139237E-32   1.018791556006754E-33
3.9999999999999996E-5     -1.1380267034477562E-36  -3.1945627259295806E-36  -2.2978684277048217E-35  3.0118632714624784E-35   -1.4241420908208938E-35  -3.2278581441504848E-34  -2.37307981379186E-33    2.849123864803713E-32    1.9497761053303197E-32   -2.9803172980616363E-33  9.161664683098529E-34
4.1E-5                    8.066290353410059E-37    -3.318563125328481E-36   1.0183618966927841E-35   -8.523900436677432E-35   -7.149794627999506E-35   -1.037435323595841E-33   -8.516315351417037E-33   7.872730226402399E-33    -3.173391101184849E-32   -2.3421437874628577E-32  -5.360341526250029E-34
4.2E-5                    3.4867643157537215E-36   5.966804691951812E-36    5.631145651969855E-35    -1.0815681782881062E-34  -8.353181688086306E-35   -1.1310416865654972E-34  -4.225472584600594E-33   -3.4686553704660373E-32  -5.55255493343018E-32    -1.9805459591235156E-32  -2.1543199043250512E-33
4.2999999999999995E-5     4.5605978561416064E-37   1.1707853046102508E-35   2.0888888936491524E-35   1.4365523967162008E-34   1.7135756416966586E-35   1.657782385624893E-33    1.09588535071952E-32     -5.112959165487891E-32   -9.123021457720238E-33   8.53093986968314E-33     -1.7691353155448686E-33
4.4E-5                    -8.285297985976824E-36   -6.496384899690805E-36   -1.0142532682157659E-34  3.321336860386938E-34    2.3262354089032565E-34   1.3013057954699957E-33   1.849456505337123E-32    -9.917083192671494E-33   6.146606863075532E-32    3.2138767983101575E-32   7.862036989611045E-34
4.4999999999999996E-5     -7.517033533932281E-36   -3.1376518252841205E-35  -1.2701723729558804E-34  -9.206423709967047E-35   3.104027017824521E-34    -1.5128187358383086E-33  9.006268870464316E-34    5.907696290262785E-32    6.975060106708474E-32    2.527198134376372E-32    2.770484392646203E-33
4.6E-5                    1.3633891742954047E-35   -7.05721579493799E-36    9.874049781302093E-35    -7.580125611509081E-34   -1.3440411044345212E-34  -2.685938081351393E-33   -2.829619863474937E-32   8.53228555875209E-32     -1.2883047756836951E-33  -5.3503652273115596E-33  2.0965433042001278E-33
4.7E-5                    2.867206747436041E-35    6.453988062342642E-35    3.4233476976104333E-34   -3.761479172744701E-34   -8.845032507009996E-34   1.132095994669617E-34    -3.058639785170118E-32   2.8758118190620623E-32   -7.55879081428193E-32    -3.1728591865263486E-32  3.3433028787895326E-34
4.8E-5                    -6.696567063015642E-36   6.26145841654153E-35     1.068754980811777E-34    1.1744288047439338E-33   -7.596972389053412E-34   2.6750004270619603E-33   9.161228070735442E-33    -7.323235989245501E-32   -7.797054038530735E-32   -3.547095323274163E-32   -2.6750590652070247E-34
4.9E-5                    -6.928776927842991E-35   -9.069340196085666E-35   -5.773348022848073E-34   1.6440683331475386E-33   9.540508418593954E-34    9.234200019930218E-34    5.193836871182641E-32    -1.325006138913678E-31   -1.576146544649819E-32   -1.7711571226479403E-32  -1.2328819433763773E-33
4.9999999999999996E-5     -4.6380037267476886E-35  -2.0039808029780747E-34  -7.210420509387993E-34   -7.273203547091506E-34   2.4915417384369304E-33   -1.0900993365846585E-33  4.3110921095464565E-32   -8.584799010401991E-32   5.103171338682373E-32    1.333742685968629E-32    -5.0037813761619804E-33
5.1E-5                    1.0473988232520118E-34   2.8873397766472595E-35   4.712252430233986E-34    -3.44863607073585E-33    8.354560968253716E-34    1.6062123363946657E-33   -1.9072283357831256E-32  4.7017394751205594E-32   8.471015169884813E-32    4.707602368517545E-32    -7.802931874260544E-33
5.2E-5                    1.8969307369949805E-34   4.237082926258517E-34    1.7872724078511876E-33   -1.8851519567589986E-33  -3.4620533885017054E-33  2.7659670948198544E-33   -7.383181400997621E-32   1.7094929334540943E-31   8.045756193196871E-32    6.225430892384654E-32    -1.6413189495334426E-33
5.3E-5                    -3.714153389956309E-35   2.856076860975025E-34    6.7883447845696465E-34   3.6814357883343946E-33   -4.71555751695537E-33    -6.0387623933353206E-33  -6.326336714526065E-32   1.8443921614857387E-31   3.021814739741506E-32    3.3998801246593566E-32   1.285977904406704E-32
5.4E-5                    -4.038684235608485E-34   -5.730596256990848E-34   -2.7449856072508284E-33  6.336379498374267E-33    8.881415137626686E-34    -1.4049913184540086E-32  8.114869455868871E-33    5.954726130998744E-32    -6.820480614955303E-32   -3.5987435525902895E-32  2.0985786502057244E-32
5.4999999999999995E-5     -3.014966967797249E-34   -1.0026480892077253E-33  -3.682055070999419E-33   9.564946978487201E-34    7.646056257353018E-33    -1.7649823537723902E-35  8.416537082556287E-32    -1.3103633257598222E-31  -1.635139852533467E-31   -1.0318707361975697E-31  8.727896033610917E-33
5.6E-5                    4.679159341080955E-34    1.9871245091037052E-34   1.717036264151E-33       -7.735783215499258E-33   5.61464162851136E-33     2.814636533082722E-32    1.0749941104277762E-31   -2.6369660528323985E-31  -1.6483698648613206E-31  -1.0975518684260602E-31  -1.7716226708623873E-32
5.6999999999999996E-5     9.778589074615435E-34    1.9255220559684006E-33   8.166719857971028E-33    -9.562239128538678E-33   -4.7862442237874516E-33  2.779378688577434E-32    5.137218578961325E-32    -2.4776325338798167E-31  -3.47325136165201E-32    -3.612660270593695E-32   -3.4214558830420933E-32
5.8E-5                    9.057644117080469E-35    1.284194445878701E-33    4.5332704909997604E-33   -8.712130982278288E-34   -1.0521977422734084E-32  -1.8760768097895372E-32  -6.700182090123753E-32   -7.69712131831112E-32    1.532024626047724E-31    7.792829628069778E-32    -2.3024120333313184E-32
5.9E-5                    -1.5877593687393877E-33  -2.107049304788385E-33   -9.712626854410202E-33   1.120487382113912E-32    -3.43162094461694E-33    -5.946630662891889E-32   -1.7501872650070435E-31  1.7346108266990052E-31   2.7223696375704715E-31   1.6155387647517083E-31   8.9223862446165E-33
5.9999999999999995E-5     -1.6435834358735617E-33  -3.8633401785501534E-33  -1.681788402429301E-32   1.5910756425243928E-32   6.982178560466055E-33    -2.987344023664261E-32   -1.7108787018028925E-31  3.7865187898111624E-31   2.4502989141992976E-31   1.6101934114362956E-31   3.735036258368096E-32
6.1E-5                    1.0272828630263861E-33   2.1197640661051663E-35   -7.291851656639495E-34   7.04199093054356E-33     7.120629945574848E-33    4.8821073904161275E-32   -1.5259535108265206E-32  4.100882740346131E-31    8.085560449842865E-32    7.01137873772854E-32     4.190434992158435E-32
6.2E-5                    3.579272180314305E-33    5.946858024382275E-33    2.529366758401449E-32    -1.3493852407145452E-32  6.495935980370687E-36    8.003922553113268E-32    1.980116135156479E-31    2.0505276654630617E-31   -1.5305401420742165E-31  -7.0925463258641E-32     1.8871255801636742E-32
6.3E-5                    1.840122737875418E-33    5.0694230608540674E-33   2.618365694616867E-32    -3.2656169063695215E-32  -6.091126926640069E-34   1.7971037586651026E-32   2.98668546265027E-31     -1.6653074159766541E-31  -3.5985790857137773E-31  -1.990719592989208E-31   -1.9666811869417303E-32
6.4E-5                    -3.603524816546538E-33   -4.3798375880924436E-33  -9.806967285908934E-33   -2.768992550743833E-32   5.249292644124398E-33    -6.475072084347572E-32   1.960385234025775E-31    -5.125468029634651E-31   -4.347131887989914E-31   -2.570895501219782E-31   -5.181703235848756E-32
6.5E-5                    -6.202393062560909E-33   -1.1121209837538255E-32  -4.5464840663563135E-32  1.4565188356122694E-32   1.749615928636575E-33    -7.262154571376638E-32   -4.233331764499473E-32   -6.348566738166561E-31   -3.160767117494136E-31   -2.125225248182461E-31   -5.5147033620071E-32
6.599999999999999E-5      -9.870647461754635E-34   -3.4549554695415864E-33  -3.327568365766384E-32   6.861941473421731E-32    -1.5526686838942362E-32  -1.1404713311567223E-32  -2.6865746028096497E-31  -4.619434350986275E-31   -3.796708851944573E-32   -6.631633821322838E-32   -2.2181179693623023E-32
6.7E-5                    7.581162086406179E-33    1.2627893104285103E-32   2.199586451037986E-32    7.354330246446476E-32    -2.5947503912720026E-32  3.67430891578139E-32     -3.7354785115856804E-31  -7.81619283796809E-32    2.8917611430604284E-31   1.4063264757021E-31      2.7668650116474856E-32
6.8E-5                    9.002512472790342E-33    1.6052369480416414E-32   6.083917552263984E-32    -7.38298684588001E-33    -8.773443604410118E-33   3.6758723836491855E-32   -3.1626963165536013E-31  3.5680272066284595E-31   5.556428284738603E-31    3.279739627825846E-31    5.778839769300699E-32
6.9E-5                    -5.6923189346915166E-34  -3.028205687031809E-33   3.855816528095006E-32    -1.2273689445360031E-31  2.7354001022290507E-32   2.9837690452699554E-32   -1.0133918163451752E-31  6.9578632533927975E-31   6.88853481253126E-31     4.037343281275828E-31    4.4227643785995064E-32
7.0E-5                    -1.1927115408641788E-32  -2.4846288783244765E-32  -2.0654911656518514E-32  -1.5479456180684292E-31  5.090076164584016E-32    3.974766360014594E-32    2.0599252861276315E-31   8.312402970737972E-31    6.207631618815676E-31    3.1762165591391243E-31   -2.6090688567672675E-33
7.099999999999999E-5      -1.2146062063682515E-32  -1.8968506789707722E-32  -5.694448600799435E-32   -3.5368342489007733E-32  3.831175238360215E-32    2.4681301586283104E-32   4.607721265700175E-31    6.963783701365021E-31    2.808777460590045E-31    9.50540142254034E-32     -4.780684007578183E-32
7.2E-5                    6.783847912611074E-34    1.5643449131941493E-32   -4.751892689729934E-32   1.6097767703231207E-31   -8.394255406071695E-33   -4.5698279277543713E-32  5.139664599546429E-31    2.8905120995812832E-31   -3.255307582166298E-31   -1.878521032961936E-31   -6.226601457764159E-32
7.3E-5                    1.48159712934776E-32     4.0383439757758083E-32   -1.6677043987488768E-32  2.636857880758912E-31    -6.533762762432848E-32   -1.2232683523155842E-31  3.3964521362544975E-31   -3.0415734686820546E-31  -1.0474314942106241E-30  -4.64190113400707E-31    -4.345758459640329E-32
7.4E-5                    1.6900969909403423E-32   1.8940966709048619E-32   1.9573703745735324E-32   1.6002206570806846E-31   -9.640692914853392E-32   -1.325356489422E-31      5.306812226218948E-32    -9.309123977388391E-31   -1.6452510100948913E-30  -7.077136243027481E-31   -1.4612599626609768E-32
7.5E-5                    4.3294742315324764E-33   -3.329512034624813E-32   6.949813976938202E-32    -9.904721962916873E-32   -6.859856560537084E-32   -6.652685801913717E-32   -2.184099682389521E-31   -1.4354850866148508E-30  -1.9354012188473056E-30  -9.144858192643106E-31   -1.327716324265312E-32
7.599999999999999E-5      -1.3737716621428007E-32  -5.748257963791835E-32   1.058507625318718E-31    -3.371463622626583E-31   2.0269642259364933E-32   3.797194742040199E-32    -4.524267474528857E-31   -1.7140049228983793E-30  -1.87016353952839E-30    -1.0732268894953075E-30  -7.590491403691241E-32
7.7E-5                    -2.416229666454151E-32   -1.7693262392735277E-32  5.031028857081177E-32    -3.787148643908671E-31   1.2220684636807357E-31   1.6149455645372803E-31   -6.974839453084779E-31   -1.738190945479225E-30   -1.4945813900524011E-30  -1.1560436685022914E-30  -2.1340067384827504E-31
7.8E-5                    -1.788036830034282E-32   5.06776212935974E-32     -1.1131229270711197E-31  -1.5616640930516311E-31  1.6108137636961612E-31   2.8571170690658883E-31   -9.514501586003651E-31   -1.5448169976830486E-30  -8.709156586862272E-31   -1.1160357098942708E-30  -3.869386306528854E-31
7.9E-5                    4.78383473584699E-33     7.356631403696982E-32    -2.3059874462493936E-31  2.400758542254565E-31    9.024317197897118E-32    3.205972786040249E-31    -1.1167492513751727E-30  -1.184818581942862E-30   -5.816646603747558E-32   -8.799588593028643E-31   -5.152649629487804E-31
7.999999999999999E-5      3.1316715738496963E-32   1.9950683756299632E-32   -1.2427267723539486E-31  5.715148278317542E-31    -6.452605862338404E-32   1.29930419773069E-31     -1.0856483572141766E-30  -6.530069529399222E-31   8.75251504617661E-31     -3.650227506587052E-31   -5.254907321164766E-31
8.099999999999999E-5      4.0571510955399427E-32   -6.027967667898609E-32   1.6646312611295268E-31   5.633852813568682E-31    -2.1765952429951016E-31  -3.2048281067664917E-31  -8.56687090024521E-31    1.2859384513293856E-31   1.8600595329082074E-30   4.577305922243969E-31    -4.0661625760479395E-31
8.2E-5                    1.699345657450749E-32    -8.603040586035968E-32   3.440330768074992E-31    1.222370765761168E-31    -2.806796651581739E-31   -8.614688125165377E-31   -5.521055994475347E-31   1.2249115201279577E-30   2.8457538079242888E-30   1.4970939247178252E-30   -2.093167855255862E-31
8.3E-5                    -3.0992314955058745E-32  -2.821699812368582E-32   1.7074531622706228E-31   -5.025920132812514E-31   -2.154976640013318E-31   -1.2038450611037118E-30  -2.954932610333959E-31   2.5683648419082078E-30   3.792855888135796E-30    2.5478244171232537E-30   9.713689587549797E-33
8.4E-5                    -6.7177912769349E-32     6.015134207098445E-32    -2.2465764787458168E-31  -8.393241521014373E-31   -4.807947151119632E-32   -1.1361085073207943E-30  -4.6075059815898546E-32  3.9388589625236245E-30   4.646481399062782E-30    3.3861306373988634E-30   2.382325307992189E-31
8.499999999999999E-5      -5.233803388308018E-32   9.427711267047645E-32    -4.430759377039593E-31   -5.825657787902086E-31   1.5356741255201718E-31   -6.588070289116105E-31   4.301287894534894E-31    5.0778247647771656E-30   5.326609252111151E-30    3.886479092493575E-30    5.02206651519373E-31
8.599999999999999E-5      1.549415321386818E-32    3.7595493108475076E-32   -2.2358192058957206E-31  9.599287241934295E-32    3.0761421247690093E-31   3.032507427416743E-32    1.367083554996563E-30    5.8203979863500144E-30   5.736998609443403E-30    4.069852308975119E-30    8.18984749387168E-31
8.7E-5                    8.505868186456407E-32    -6.151792387550825E-32   2.7896682222253713E-31   6.592178322087588E-31    3.3567827515038314E-31   6.524129092147531E-31    2.7420658392108176E-30   6.117857611772595E-30    5.773993318592445E-30    4.046417657207522E-30    1.1667278211719706E-30
8.8E-5                    8.956601501357682E-32    -1.0875766750487626E-31  6.139521043837114E-31    6.743820933127502E-31    1.8246726246807858E-31   9.790323201066506E-31    4.221441101326717E-30    5.958862710526639E-30    5.340008029444193E-30    3.895535687154154E-30    1.496943899365245E-30
8.9E-5                    1.348199763935933E-32    -4.797228553742318E-32   4.248557834783406E-31    2.0075605814580034E-31   -1.4313996230258006E-31  9.213647624217547E-31    5.355616113693867E-30    5.30774460622224E-30     4.371710697167878E-30    3.5795078348026455E-30   1.7631529603167607E-30
8.999999999999999E-5      -8.064679575338316E-32   7.984515253616066E-32    -2.1937707453221666E-31  -2.7345254274258675E-31  -5.208404638386086E-31   5.473816365116771E-31    5.7930306843253825E-30   4.134809363160605E-30    2.8593163911149067E-30   2.966488765677314E-30    1.9284959427058035E-30
9.099999999999999E-5      -1.0570923061324067E-31  1.5907614946526961E-31   -8.323607696977286E-31   -2.8577839467005343E-31  -7.204496498403069E-31   4.396036158328791E-32    5.339800604828771E-30    2.4838853290327942E-30   8.302792595878119E-31    1.938513360166964E-30    1.9529795166089992E-30
9.2E-5                    -3.741725201676922E-32   9.554526124395639E-32    -8.948374640011097E-31   1.6069715422473348E-31   -5.008933212110271E-31   -3.075599248580282E-31   3.965517177349416E-30    4.676616574288089E-31    -1.6788909027210656E-30  4.747950440257761E-31    1.7926065457270757E-30
9.3E-5                    5.773109632019359E-32    -9.023512892406186E-32   -2.977975510416785E-31   5.610844940821978E-31    2.167217710013548E-31    -1.3100539290574986E-31  1.88115259580509E-30     -1.8310010831524667E-30  -4.614325464789893E-30   -1.3612652992523293E-30  1.4259326077348122E-30
9.4E-5                    8.864225232636079E-32    -2.5819798679166257E-31  5.846158655419549E-31    3.3424827531755198E-31   1.2208148131708758E-30   9.248282005591853E-31    -4.379172987588219E-31   -4.4441818315718894E-30  -7.859422963378288E-30   -3.4790597182490735E-30  8.796750748962684E-31
9.499999999999999E-5      3.15076772707499E-32     -2.496054170062166E-31   1.2314714901414444E-30   -6.208320238347577E-31   2.063601659986737E-30    2.831312836500373E-30    -2.462033174066833E-30   -7.47074461730405E-30    -1.1205482801817339E-29  -5.768877264481588E-30   2.1360811070373375E-31
9.6E-5                    -4.9009190115530275E-32  -2.042675082180306E-32   1.3151207027070404E-30   -1.717368398502027E-30   2.305920963965295E-30    4.8471228050897614E-30   -3.922147358498032E-30   -1.0911466096143122E-29  -1.4380754354534226E-29  -8.06757107298456E-30    -5.297823743777595E-31
9.7E-5                    -6.774396141569991E-32   3.0030550220843416E-31   7.620798206832274E-31    -2.0412805151499753E-30  1.7707927512202835E-30   5.7266688566837476E-30   -4.916690625177509E-30   -1.4537187629670997E-29  -1.712546796587295E-29   -1.0171070541700703E-29  -1.3545944620121892E-30