% Model:              Untitled.mph
% Version:            COMSOL 6.0.0.405
% Date:               Jul 16 2025, 09:52
% Dimension:          1
% Nodes:              401
% Expressions:        11
% Description:        Point graph
% Time (s)                Displacement field, Y component Displacement field, Y component Displacement field, Y component Displacement field, Y component Displacement field, Y component Displacement field, Y component Displacement field, Y component Displacement field, Y component Displacement field, Y component Displacement field, Y component Displacement field, Y component
0                         -1.464128153800654E-34   -3.333066193424838E-31   -5.608417430776076E-31   -4.686693636550769E-30   -3.6979885591400406E-30  -4.675562423106708E-30   -7.044322988994438E-30   4.2772238296740445E-36   -2.4593847310241697E-36  3.150717126448518E-33    -9.836452966937382E-33
5.0E-7                    1.4860481632637141E-25   -3.193914622549949E-23   9.368148744630769E-23    1.008867250741671E-21    5.376302934783967E-22    8.179547295894383E-23    -5.040899467076379E-21   -4.964876748723033E-28   1.082627248903022E-27    -6.570381187866233E-25   -1.2531073505812016E-23
1.0E-6                    1.6451815803547059E-24   8.788579773059169E-22    2.1626432877854624E-22   9.955299782926132E-21    5.791162360830434E-21    1.0357552848378373E-20   3.505338613723378E-20    -5.500418914117118E-28   1.374726263012698E-26    2.6843313565375234E-25   2.1050473954248187E-23
1.5E-6                    -1.0526447767668046E-23  -3.311669559787658E-21   -2.9445136556451502E-21  -6.00646226560695E-20    -4.45292339230263E-20    -5.402814620027109E-20   -8.265392184286975E-20   7.231838385035378E-27    -1.398666131181189E-25   8.386032147003296E-24    1.1829346930441684E-22
2.0E-6                    -1.6210299609545758E-23  3.886523185502347E-21    8.762043785674333E-21    8.7153425364129E-20      9.126239457412465E-20    9.913532130074889E-20    1.0628364710854079E-19   -2.851856787479397E-26   2.692236825990952E-25    -2.674301652994242E-23   3.299732354331722E-22
2.4999999999999998E-6     9.277023962469217E-23    -3.316910754340479E-21   -8.602148951668546E-21   -3.6022159238101165E-20  -2.3259227114856055E-21  -1.0892588809324633E-19  -1.5076417530546065E-19  6.880626028330035E-26    2.752870042279478E-25    1.5738597377593026E-23   -1.4638212526274322E-21
3.0E-6                    2.7306856629045594E-22   9.722757161469802E-22    -2.4259682166295998E-21  -2.2566882807064688E-20  -2.3302240072010934E-19  -3.523018724719385E-19   -4.989815302540307E-19   -8.861987674673572E-26   1.029417767151354E-24    7.412902954955741E-23    -4.163599560981784E-21
3.5E-6                    -5.456820029519649E-22   4.685312141596007E-20    -1.6647198302481276E-21  5.474508326158328E-19    2.5636537068565047E-19   1.3516652217031889E-18   2.392879724164095E-18    -5.300140051206403E-26   -6.549598946261642E-24   1.025627939015376E-22    1.1706450273451867E-20
4.0E-6                    -2.6313353756946378E-21  -4.835179770628038E-20   -5.497526636562982E-20   -2.306676363728491E-18   -2.19302846760423E-19    1.9933035973770643E-18   1.5462558103321335E-18   7.099473722968385E-25    -1.4033811246760796E-23  -1.6285306979758903E-21  2.968852594434625E-20
4.5E-6                    1.1194521224381048E-21   -2.4441395121739843E-19  2.4583879657083835E-19   -3.0810446622994174E-18  -8.272161084849052E-19   -4.131105885207586E-18   -1.137146406421878E-17   -1.7032391083742526E-24  5.113456967527356E-23    -4.143081480011955E-22   -5.937322597703821E-20
4.9999999999999996E-6     1.6947350567322882E-20   -3.5456813455617663E-19  -4.141169173237306E-20   9.558185727478489E-18    1.6448971563772854E-18   -1.8018624424679938E-17  -1.2576653787488272E-17  -2.3810633461005563E-24  1.059401790837327E-22    1.6609853071571454E-20   -1.712601946936711E-19
5.5E-6                    1.129911374361051E-20    4.94704299603421E-19     -1.4100430229515205E-18  9.969881675306239E-18    1.049290930055902E-18    -1.695821623329668E-17   3.421020400448273E-17    1.5892255241366694E-23   -2.1290529350484767E-22  2.224359256043178E-21    2.1759823026044805E-19
6.0E-6                    -7.799840887394329E-20   3.154559539669912E-18    -6.841528362893813E-20   -5.177821713530823E-17   -1.4031213863429808E-17  5.997152259260345E-17    7.246049062003203E-17    6.195134062081896E-24    -6.1858380790572275E-22  -1.0834259708769037E-19  1.0338916169358191E-18
6.5E-6                    -1.355137731535985E-19   -2.7929764690680705E-19  3.1583704337572492E-18   -1.2243004243750007E-16  -2.977477876015441E-17   1.7872923017176444E-16   -6.277930650549872E-17   -9.523017837147055E-23   5.078142864925679E-22    -5.221432194590509E-20   1.177297956213585E-19
7.0E-6                    2.3808140037630616E-19   -2.1358359472836683E-17  -1.4338076590225664E-18  6.920907539310421E-18    1.81184786261152E-18     -2.4871159625977834E-17  -3.1702147696637815E-16  -1.2713523702980358E-23  2.5732489737712965E-21   5.213847497690621E-19    -4.213151385667854E-18
7.499999999999999E-6      8.188972252092135E-19    -3.2925972824194E-17     -1.6715637476142153E-17  2.2293510409141237E-16   2.617870571391418E-17    -8.864936283863974E-16   -1.9045182777031602E-16  4.335577724837915E-22    -5.728591814473326E-22   5.318310119497205E-19    -5.089165477399346E-18
8.0E-6                    -2.646090476917046E-19   2.678166951130674E-17    -3.421810213990049E-17   -4.948319810666287E-16   -2.360462058009944E-16   -1.3150629704919835E-15  5.568405478796723E-16    6.267273185821107E-23    -7.817093892911853E-21   -1.793458699515287E-18   1.2464175810785815E-17
8.5E-6                    -3.4345535916358005E-18  9.173544327825606E-17    -4.0390707846843833E-17  -2.580335843151381E-15   -8.147583321026602E-16   1.0844191620273865E-15   1.0076369204393998E-15   -1.5207486953518077E-21  3.086802348241084E-21    -2.9182059517057325E-18  4.10177415242062E-17
9.0E-6                    -2.1380336568268687E-18  -1.4989456100740698E-16  -5.710410049319199E-17   -3.1781849427905227E-15  -9.597779346002228E-16   4.62240378416101E-15     -4.903180987738685E-16   -2.4650778491866284E-22  2.909726197707803E-20    5.0799785401367294E-18   1.740128125229858E-17
9.499999999999999E-6      9.529422350138439E-18    -8.210645267555337E-16   -2.6355589753583587E-16  -4.340253240365626E-16   -9.533840604649272E-16   -3.692878803648713E-16   -4.721751767424687E-15   5.318457510882861E-21    -1.3785302009023905E-20  1.4382721158321863E-17   -1.0473013363565968E-16
9.999999999999999E-6      1.4547821556927663E-17   -1.1070377092659191E-15  -9.019426848274317E-16   -4.44905615399431E-15    -5.027188638328782E-15   -1.817860106230608E-14   -9.103770852474649E-15   4.585257081179432E-21    -1.1998733096941943E-19  -1.899124959135301E-18   -1.5962124426756007E-16
1.05E-5                   -1.7657350933956513E-17  -1.1375016425328534E-16  -1.912809360733173E-15   -2.93175549892427E-14    -1.6438463477876323E-14  -2.8569702256450736E-14  -6.8088247983830245E-15  -8.634658065271334E-21   6.571203232033699E-20    -3.024884803402712E-17   2.0890257153020594E-16
1.1E-5                    -6.176110114043245E-17   -2.288484969096395E-16   -3.6270538570900686E-15  -6.104888032411921E-14   -2.769200643992228E-14   -9.234832470019859E-15   2.814282172986587E-15    -9.252149192579074E-21   7.647692310460395E-19    1.9647594141723194E-17   9.52928835303975E-16
1.15E-5                   -1.752513984014919E-17   -7.431773446312746E-15   -8.533974802706708E-15   -7.22024049220663E-14    -3.797260933694584E-14   3.2739045400723273E-15   -5.903824575616049E-15   5.77651407364982E-20     9.653229690907029E-19    1.8237763052140607E-16   1.1057265415583978E-15
1.2E-5                    1.1633644609903436E-16   -2.1455699381184404E-14  -2.0467286142398042E-14  -1.1001088545980448E-13  -9.365487889105399E-14   -7.922304123399036E-14   -7.816594293506788E-14   2.220070809121605E-19    -7.064622348454267E-19   3.052885214346136E-16    -1.4167875214144373E-16
1.2499999999999999E-5     6.667871258441063E-17    -2.7933744101590216E-14  -4.318832717363318E-14   -2.833895976728799E-13   -2.546411299025562E-13   -2.7292712763655286E-13  -2.1820531855710002E-13  3.373963656237196E-19    -1.505116023096878E-18   3.4871621203932157E-16   -9.917931896614246E-16
1.3E-5                    -4.090887013271545E-16   -2.208610805262158E-14   -8.915725142635499E-14   -5.690323157189202E-13   -4.887180270126404E-13   -4.734119408934252E-13   -3.494119765127126E-13   2.4147459900074794E-19   8.008682334557666E-18    9.42917560326097E-16     3.2044196860560005E-15
1.35E-5                   -8.94041561549571E-16    -4.9182288783737844E-14  -1.9077924714719868E-13  -8.42954993293076E-13    -7.653084459943667E-13   -6.863443227169076E-13   -4.366573759722E-13      1.073288451689266E-18    3.352206824384221E-17    3.218172193143927E-15    1.5202428417002085E-14
1.4E-5                    -6.763355514602327E-16   -1.7273120520071561E-13  -3.9002376797644844E-13  -1.3371478058292887E-12  -1.3992247468363242E-12  -1.2847402406888131E-12  -7.376083580766968E-13   6.089488544094897E-18    5.859366994191395E-17    7.902297807663062E-15    3.1082061622080406E-14
1.45E-5                   -6.817280840218127E-16   -3.5344401318202915E-13  -7.39355801656211E-13    -2.5990523662490435E-12  -2.9894346283764086E-12  -2.747473953135194E-12   -1.8099970694273812E-12  1.6569268412851523E-17   6.82542525552072E-17     1.604091079716494E-14    4.653568608796925E-14
1.4999999999999999E-5     -4.2125843133427085E-15  -4.4658277493542967E-13  -1.3770289064016007E-12  -4.420454883229073E-12   -5.636721403968053E-12   -5.0595072595101445E-12  -3.9817998902163765E-12  2.84194442098695E-17     1.571317796368619E-16    3.326019455724594E-14    7.583108741744725E-14
1.55E-5                   -1.3173581461006652E-14  -4.818128658859993E-13   -2.593754038378665E-12   -5.7465318761052636E-12  -8.766219044872586E-12   -7.980303016420049E-12   -6.880869990234383E-12   5.1182633565210646E-17   5.916138977282585E-16    7.448316419035938E-14    1.6306761809344782E-13
1.6E-5                    -2.4111215929986285E-14  -8.648427164392318E-13   -4.768912783614327E-12   -7.297718552976641E-12   -1.2763593697110543E-11  -1.2535459279529317E-11  -1.0209171365166446E-11  1.47431695462895E-16     1.5796304318034884E-15   1.6344435254671737E-13   3.653568892675413E-13
1.6499999999999998E-5     -3.5541504701424875E-14  -1.9466191290501884E-12  -8.38939915577169E-12    -1.3374625474976917E-11  -2.038386280685608E-11   -2.1461614007086958E-11  -1.5454459054561293E-11  4.2780563835196715E-16   3.0085116853812018E-15   3.300956402129312E-13    7.329759177235579E-13
1.7E-5                    -6.612841721271442E-14   -3.3746897597871177E-12  -1.4317225065302621E-11  -2.7851686171583086E-11  -3.451380218668309E-11   -3.6362821101466553E-11  -2.5886307693936115E-11  9.69462371826362E-16     5.208428534493218E-15    6.22281649156094E-13     1.341906242158404E-12
1.75E-5                   -1.582385649374697E-13   -4.571306538344406E-12   -2.3552081888750766E-11  -4.788304219932579E-11   -5.359490748788677E-11   -5.432180027654291E-11   -4.334097693707099E-11   1.8422168698416846E-15   1.096361204438742E-14    1.1421437444026182E-12   2.360889187887476E-12
1.8E-5                    -3.4691025606085476E-13  -6.396773299338247E-12   -3.579951569012135E-11   -6.505571751300281E-11   -7.093166967109771E-11   -6.96741923011189E-11    -6.514739646609571E-11   3.55401898663761E-15     2.6158502055277135E-14   2.0836862674289167E-12   4.038144288659513E-12
1.85E-5                   -6.301590763695013E-13   -1.1569824208123997E-11  -4.8441440670933666E-11  -7.433347794693121E-11   -8.03881438717708E-11    -8.009667661116581E-11   -8.577886793457432E-11   7.808268886357075E-15    5.6462833849756595E-14   3.720111771883664E-12    6.578717606562183E-12
1.8999999999999998E-5     -1.0133721581184865E-12  -2.1989870839675608E-11  -5.831128494584935E-11   -7.860041210478368E-11   -8.214823424923328E-11   -8.812178047645865E-11   -1.0157378387967655E-10  1.7715331131985546E-14   1.0470590246669185E-13   6.314929009533602E-12    1.0068525287255395E-11
1.95E-5                   -1.6296404822477492E-12  -3.54850142673233E-11    -6.477685524808187E-11   -8.224151963489203E-11   -8.109845467263348E-11   -9.472398340184725E-11   -1.1190610639895864E-10  3.689143054314842E-14    1.7965905706565456E-13   1.0002674022625682E-11   1.44897764192324E-11
1.9999999999999998E-5     -2.8078305652173534E-12  -4.6662030855147375E-11  -6.955891418290634E-11   -8.354764820922592E-11   -7.969800953554703E-11   -9.493487255673931E-11   -1.1539909362991153E-10  6.925406380601587E-14    3.155262745347438E-13    1.4727296071745352E-11   1.9547475939148633E-11
2.05E-5                   -4.94868708069874E-12    -5.192222770954356E-11   -7.300425682440865E-11   -7.685948662081922E-11   -7.435734189173955E-11   -8.37118532568186E-11    -1.0784509629323204E-10  1.2342625912329796E-13   5.779762939160287E-13    2.025854874631868E-11    2.4243790219625586E-11
2.1E-5                    -8.25066825289123E-12    -5.276986194224328E-11   -7.21858750525711E-11    -6.022392266277671E-11   -5.952966675579653E-11   -6.327159275978891E-11   -8.609972210326859E-11   2.2201855420832867E-13   1.034205701414382E-12    2.6157986152259698E-11   2.6905170334236865E-11
2.1499999999999997E-5     -1.2525492539959853E-11  -5.307902247263694E-11   -6.340798376537361E-11   -3.721797239568292E-11   -3.374855002944385E-11   -3.9048903432424237E-11  -5.2416243891802716E-11  4.066684863350905E-13    1.7095042992423524E-12   3.1555103682043447E-11   2.6268710119526056E-11
2.2E-5                    -1.730786143651403E-11   -5.361663004035246E-11   -4.512384841528895E-11   -1.1276314018343651E-11  1.1237766612386173E-13   -9.417796110424039E-12   -1.1961520810310852E-11  7.278393121264489E-13    2.5875368523265645E-12   3.493231557970222E-11    2.2711680290102612E-11
2.2499999999999998E-5     -2.216751374517208E-11   -5.043958470453755E-11   -1.790633905695843E-11   1.9571340777345247E-11   4.038792913377128E-11    3.477716629536024E-11    3.41322499532171E-11     1.2262185915236143E-12   3.663745688791587E-12    3.449279513378447E-11    1.789784289985768E-11
2.3E-5                    -2.685253067015352E-11   -3.856188705069206E-11   1.6896425086424543E-11   6.206968157795293E-11    9.099506984405667E-11    9.96500307028731E-11     9.102244081285303E-11    1.931578121893639E-12    4.9649527265385334E-12   2.928747170643552E-11    1.2879452408382967E-11
2.35E-5                   -3.098613653729155E-11   -1.616255514280227E-11   5.807877669733922E-11    1.228095014855798E-10    1.592221405338401E-10    1.8201227417801222E-10   1.6470453174493104E-10   2.8850287083194756E-12   6.446683224177024E-12    2.0086555035459013E-11   6.876858662158478E-12
2.4E-5                    -3.3543340514569966E-11  1.485612236314676E-11    1.0566885519367757E-10   2.034370737534165E-10    2.488773906910753E-10    2.752953264114269E-10    2.562511061054831E-10    4.137676705852304E-12    7.835917739973178E-12    8.61893336619837E-12     -1.8842504482884906E-12
2.45E-5                   -3.276020186428621E-11   5.140689389467756E-11    1.6160469311446678E-10   2.9952797424896015E-10   3.557239768128392E-10    3.776400214642329E-10    3.6280930763663734E-10   5.672803676711236E-12    8.637194698139924E-12    -4.478676951832215E-12   -1.468385750820937E-11
2.4999999999999998E-5     -2.6871011061611112E-11  9.186688620769138E-11    2.2853482857297905E-10   4.0408345229515295E-10   4.700528783794673E-10    4.911413999025673E-10    4.82000200866566E-10     7.289556605330348E-12    8.425442412505563E-12    -2.0694554803629666E-11  -3.201088389698062E-11
2.55E-5                   -1.5211414182597962E-11  1.3687703352849359E-10   3.07964524052525E-10     5.126873516194843E-10    5.841804303864683E-10    6.153775953081439E-10    6.120075169427604E-10    8.579360952734697E-12    7.2202296484632265E-12   -4.22228743634991E-11    -5.3962673934300016E-11
2.6E-5                    1.3292216670401856E-12   1.8801775827567117E-10   3.9974070378730705E-10   6.253006982659054E-10    6.972909403291465E-10    7.44992990303071E-10     7.481522046821121E-10    9.076074128258467E-12    5.5201831214794335E-12   -6.970959120708136E-11   -7.989709332790513E-11
2.65E-5                   2.1067184128168784E-11   2.4547611659026814E-10   5.022016310347409E-10    7.428716171832449E-10    8.122930287204511E-10    8.730539046190732E-10    8.833937699082942E-10    8.48866582406587E-12     3.813870711509003E-12    -1.0176331484198554E-10  -1.0788906121505959E-10
2.7E-5                    4.297887312504241E-11    3.0695917362368136E-10   6.118266223237087E-10    8.623783350649268E-10    9.280253010563415E-10    9.93824019460463E-10     1.0128998490594518E-9    6.8244806445414315E-12   1.950613623974311E-12    -1.363565752405896E-10   -1.3569061945198578E-10
2.7499999999999998E-5     6.765129290913755E-11    3.692843972412097E-10    7.229686289739746E-10    9.75437065711655E-10     1.0358732175981185E-9    1.101648285691539E-9     1.1342303206107001E-9    4.2968223501929496E-12   -9.528380375547283E-13   -1.7207936336756943E-10  -1.6268819686114524E-10
2.8E-5                    9.679622090471736E-11    4.3090410638462654E-10   8.281426423656125E-10    1.071855959514675E-9     1.124676106816746E-9     1.1893844655337853E-9    1.2409343081626138E-9    1.0875552110746546E-12   -5.8388808323497715E-12  -2.0814941056008436E-10  -1.9018496980211425E-10
2.8499999999999998E-5     1.3142415135429802E-10   4.919541593263682E-10    9.189880253475794E-10    1.1443963610671612E-9    1.1870112203595765E-9    1.2491267710001154E-9    1.3187487961082865E-9    -2.8508659012549635E-12  -1.2873655215397284E-11  -2.4387309940994323E-10  -2.191077775651706E-10
2.9E-5                    1.6997318277722805E-10   5.512981631272103E-10    9.88558646401099E-10     1.1892672325136925E-9    1.2180323096155682E-9    1.2728538041726117E-9    1.350689481651203E-9     -7.793189594447165E-12   -2.1334273104681843E-11  -2.7823545759217045E-10  -2.4778261218470284E-10
2.95E-5                   2.0814917975120167E-10   6.040374023287212E-10    1.0332200809869903E-9    1.2010311538588287E-9    1.2086684229473183E-9    1.2508646629636287E-9    1.3245583368983298E-9    -1.404316694372458E-11   -3.0386811459469005E-11  -3.0961948756149147E-10  -2.7252359097438947E-10
2.9999999999999997E-5     2.411202590024128E-10    6.425015241187873E-10    1.0500654902969775E-9    1.1674615913897326E-9    1.143374877890419E-9     1.1702996243933442E-9    1.2336933508022818E-9    -2.1738956288225946E-11  -3.9958017799268614E-11  -3.358154249006714E-10   -2.901149656121301E-10
3.05E-5                   2.664997614344868E-10    6.594595962295237E-10    1.0309388729008708E-9    1.0710839215070628E-9    1.0062527513949776E-9    1.0162560526262465E-9    1.0716724186153883E-9    -3.084972414715597E-11   -5.08101898910418E-11    -3.5434216450022064E-10  -2.989895413577456E-10
3.1E-5                    2.854045809232369E-10    6.500198259621684E-10    9.608379455783628E-10    8.965545184437242E-10    7.87507990600618E-10     7.743780302986E-10       8.285391266470541E-10    -4.127852133251155E-11   -6.379327753949245E-11   -3.6230178235426314E-10  -2.9803416415246836E-10
3.15E-5                   3.0044701497648317E-10   6.108483851063518E-10    8.240502567373718E-10    6.35938222844554E-10     4.823176058250224E-10    4.33255070484845E-10     4.923953148361959E-10    -5.282289380043374E-11   -7.902157534539957E-11   -3.5556722605141923E-10  -2.8511270841723264E-10
3.2E-5                    3.124818114181409E-10    5.383373938431517E-10    6.112527719138119E-10    2.8702741568386237E-10   8.536572915244765E-11    -1.3053100104911756E-11  5.371162671253721E-11    -6.499694255294669E-11   -9.559218037483785E-11   -3.28890886252412E-10    -2.5718363115595407E-10
3.25E-5                   3.1903310647790474E-10   4.2768212661982475E-10   3.2063819279045145E-10   -1.5152537768830894E-10  -4.100318893962819E-10   -5.630552687559987E-10   -4.917334017732053E-10   -7.702433836743285E-11   -1.1180376012095086E-10  -2.780113154315872E-10   -2.1133105604381635E-10
3.2999999999999996E-5     3.1532459112161915E-10   2.733405428632738E-10    -4.558554163568825E-11   -6.820045302283496E-10   -1.0062183825365013E-9   -1.2090254383198341E-9   -1.142416125730683E-9    -8.811132312379694E-11   -1.2552358695105343E-10  -2.0168227149501106E-10  -1.4530516906029E-10
3.35E-5                   2.961747070674479E-10    7.041383014573991E-11    -4.847713453093062E-10   -1.3051421706773307E-9   -1.6957201077492195E-9   -1.9409840881606513E-9   -1.8912542965031686E-9   -9.76457718466465E-11    -1.3457504436260648E-10  -1.0071454510784088E-10  -5.777098354298598E-11
3.4E-5                    2.5678637523402494E-10   -1.835724501426247E-10   -9.959198608905125E-10   -2.0164694814893994E-9   -2.4623036681583267E-9   -2.7485694427975763E-9   -2.7245841703734322E-9   -1.0502588407679029E-10  -1.37216209890895E-10    2.5114130082448863E-11   5.098322802492256E-11
3.45E-5                   1.9254722660411356E-10   -4.871186614165037E-10   -1.579683790572795E-9    -2.8042466923529E-9      -3.286866504312655E-9    -3.6177549522395073E-9   -3.620906443830463E-9    -1.0939369231459277E-10  -1.3257494940683185E-10  1.782571692996728E-10    1.7862855739261494E-10
3.5E-5                    9.940547317896237E-11    -8.342771176320862E-10   -2.2348761093132907E-9   -3.6495574574160203E-9   -4.1508790249475445E-9   -4.525760055890784E-9    -4.551806930049943E-9    -1.0971235962576959E-10  -1.2062621128560423E-10  3.6101489074211087E-10   3.2189523779435613E-10
3.5499999999999996E-5     -2.4660431688213057E-11  -1.2157105395383754E-9   -2.952423362456707E-9    -4.527685161255894E-9    -5.033124178011323E-9    -5.439328882225746E-9    -5.484615021851718E-9    -1.0504348197422032E-10  -1.0148540265368197E-10  5.723773965747349E-10    4.783551886545406E-10
3.6E-5                    -1.7854096217745835E-10  -1.6206804805611795E-9   -3.7110839674561728E-9   -5.409238019115096E-9    -5.903590302718544E-9    -6.317164129190372E-9    -6.383257349686774E-9    -9.446406624171701E-11   -7.443203344929336E-11   8.072263605695022E-10    6.465505631407017E-10
3.65E-5                   -3.588474396187107E-10   -2.038549420498919E-9    -4.478741722954854E-9    -6.260208642974146E-9    -6.721726935116305E-9    -7.113603384986094E-9    -7.206019541214258E-9    -7.657001218399982E-11   -3.751346491655158E-11   1.057564806441151E-9     8.239153911473562E-10
3.7E-5                    -5.622195180544743E-10   -2.4586910108628206E-9   -5.218884926706705E-9    -7.041732412198403E-9    -7.440385737425892E-9    -7.781148669705236E-9    -7.903855873707662E-9    -4.927199210088158E-11   1.1767471359172919E-11   1.3137466911745926E-9    1.0047564238622694E-9
3.75E-5                   -7.867895353337894E-10   -2.868874908624364E-9    -5.897319800739394E-9    -7.710319556079835E-9    -8.009701330974102E-9    -8.271243062221786E-9    -8.422657674612036E-9    -1.0439624193504391E-11  7.508619570684628E-11    1.5651995300752589E-9    1.1805117901238047E-9
3.7999999999999995E-5     -1.0310965885277798E-9   -3.253164658147731E-9    -6.483131176803367E-9    -8.217826127912196E-9    -8.376999111825044E-9    -8.533642752875927E-9    -8.707395197766283E-9    4.10230268096021E-11     1.5226464748060041E-10   1.8010859756357944E-9    1.3417610648857327E-9
3.85E-5                   -1.2910390318637038E-9   -3.590608888306978E-9    -6.943081664451302E-9    -8.510752269363936E-9    -8.486283846078755E-9    -8.515721378960944E-9    -8.703768406653423E-9    1.0463549582041208E-10   2.412952499445976E-10    2.0102858620974697E-9    1.4796651307940391E-9
3.9E-5                    -1.5571267609856492E-9   -3.85569652140543E-9     -7.235839078976229E-9    -8.531004075303203E-9    -8.282101582674702E-9    -8.163698632398642E-9    -8.357613047780062E-9    1.7873511319472063E-10   3.3924618267701566E-10   2.1800261385546224E-9    1.5856236416163333E-9
3.95E-5                   -1.8140427493634857E-9   -4.020693471246177E-9    -7.3127083520615355E-9   -8.220586670510065E-9    -7.715818688093342E-9    -7.426712665392501E-9    -7.616764476432067E-9    2.612733257418865E-10    4.4321222624866806E-10   2.294525329558867E-9     1.65018228526798E-9
3.9999999999999996E-5     -2.0428927515855826E-9   -4.0587281013016385E-9   -7.12427006884515E-9     -7.528800606095201E-9    -6.7485023975196956E-9   -6.262690487347221E-9    -6.437500454548449E-9    3.50245738515249E-10     5.505668379182779E-10    2.3358040799752012E-9    1.662954870251919E-9
4.0499999999999995E-5     -2.2247945040485647E-9   -3.946001569974238E-9    -6.627000841136939E-9    -6.417151060599431E-9    -5.3497422055577335E-9   -4.643996253487889E-9    -4.7916385624061E-9      4.435243991133693E-10    6.584120744781739E-10    2.2865504814559473E-9    1.6140755860253137E-9
4.1E-5                    -2.3436491916229534E-9   -3.6626415354682165E-9   -5.785966358821454E-9    -4.859486601764867E-9    -3.4980407896912743E-9   -2.5610308326423966E-9   -2.669414095854664E-9    5.383983353987768E-10    7.627276569139917E-10    2.1327035621031696E-9    1.4960965718663422E-9
4.15E-5                   -2.3865516369791724E-9   -3.1931808643629654E-9   -4.57450465544814E-9     -2.8406014163620175E-9   -1.1862975691135877E-9   -2.2805613076263232E-11  -7.868418254840785E-11   6.311950924277921E-10    8.578798727671901E-10    1.864114779454577E-9     1.3048999102763709E-9
4.2E-5                    -2.3420570419883765E-9   -2.527440372340046E-9    -2.974208953450549E-9    -3.582666392077804E-10   1.5716751771039267E-9    2.9447362075960032E-9    2.954725365876468E-9     7.171629957674516E-10    9.368511648286175E-10    1.473787429709513E-9     1.0391733532799031E-9
4.2499999999999996E-5     -2.198184009297212E-9    -1.661272318479111E-9    -9.776020693144107E-10   2.5713281450331616E-9    4.739875757959854E-9     6.299858223206254E-9     6.383287347139007E-9     7.906230935875198E-10    9.9202799073742E-10      9.57117497005029E-10     6.992290093728265E-10
4.2999999999999995E-5     -1.942154729116421E-9    -5.965562241667345E-10   1.4073770631354435E-9    5.910004633470848E-9     8.263939223473441E-9     9.982863586831115E-9     1.0134029161592834E-8    8.452599136302802E-10    1.0159615740517728E-9    3.121633371025344E-10    2.8645926639445854E-10
4.35E-5                   -1.562266830738779E-9    6.586957196366893E-10    4.154565878120889E-9     9.59913299918576E-9      1.2073636154428398E-8    1.3910939611860938E-8    1.4109073138978032E-8    8.743721093777441E-10    1.0015336368797676E-9    -4.5871378277121676E-10  -1.9577609935027503E-10
4.4E-5                    -1.0504507126261873E-9   2.088741799422572E-9     7.220134130844593E-9     1.3562471870066249E-8    1.607982747887528E-8     1.7973750549058197E-8    1.8189927720014778E-8    8.710994050969733E-10    9.41539179134763E-10     -1.3463929222164827E-9   -7.402626711094649E-10
4.45E-5                   -4.03740886503605E-10    3.667355842085758E-9     1.0543911987381022E-8    1.7704513661745545E-8    2.0169123751819677E-8    2.2033566960087402E-8    2.2241046323284972E-8    8.288622070477228E-10    8.284142354227973E-10    -2.333165704347403E-9    -1.3344899406975554E-9
4.4999999999999996E-5     3.7573963867651194E-10   5.356108571884003E-9     1.4048428951939224E-8    2.1905165620883286E-8    2.4202543237955773E-8    2.593050272020315E-8     2.611016308780381E-8     7.420331910745452E-10    6.549120534640879E-10    -3.3927652056928172E-9   -1.96083404766963E-9
4.5499999999999995E-5     1.2811327127774715E-9    7.105355373424019E-9     1.763649229430197E-8     2.601806672992472E-8     2.802021277257845E-8     2.9490613734956633E-8    2.962806394739276E-8     6.063577537608289E-10    4.1570478073074615E-10   -4.49198000687866E-9     -2.5981342232832463E-9
4.6E-5                    2.3001797566782312E-9    8.85726123109162E-9      2.119058294772746E-8     2.9877036487814634E-8    3.1448921672012565E-8    3.253425689532226E-8     3.2612384761507016E-8    4.186787648368874E-10    1.0892032031322839E-10   -5.592387780334393E-9    -3.2233848273456662E-9
4.65E-5                   3.413340646197988E-9     1.0548783581125078E-8    2.4575778594612546E-8    3.330641527478991E-8     3.430887798563921E-8     3.488273935755935E-8     3.4876630667972005E-8    1.763545100855339E-10    -2.6342625356540485E-10  -6.651157266268901E-9    -3.812568800178125E-9
4.7E-5                    4.5917995680081674E-9    1.2113377155001631E-8    2.7645219184437858E-8    3.6127572805191293E-8    3.641896617938228E-8     3.6362092499487475E-8    3.624084667895129E-8     -1.2261744589738183E-10  -6.961469603331232E-10   -7.621214637433382E-9    -4.340698725362814E-9
4.7499999999999996E-5     5.796809053084457E-9     1.3481944542677287E-8    3.024581171316773E-8     3.8159817497419996E-8    3.760180452564431E-8     3.680533874349047E-8     3.6539485049256435E-8    -4.783464830875667E-10   -1.1817386290604798E-9   -8.45178595459337E-9     -4.7819100749177444E-9
4.8E-5                    6.981110156622197E-9     1.458431089847934E-8     3.2222432144499415E-8    3.9221653562579515E-8    3.7689769714114967E-8    3.605775317667857E-8     3.562600873548011E-8     -8.874874188850624E-10   -1.7103679702608072E-9   -9.089944948662602E-9    -5.110590280639347E-9
4.85E-5                   8.091994179698022E-9     1.5351865102687535E-8    3.342116358905929E-8     3.9138442148060973E-8    3.653258011931219E-8     3.398822887592608E-8     3.337825548099959E-8     -1.3425434752232644E-9   -2.26896051720867E-9     -9.483118863668768E-9    -5.303810340748757E-9