% Model:              Untitled.mph
% Version:            COMSOL 6.0.0.405
% Date:               Jul 17 2025, 01:27
% Dimension:          1
% Nodes:              401
% Expressions:        11
% Description:        Point graph
% Time (s)                Displacement field, Y component Displacement field, Y component Displacement field, Y component Displacement field, Y component Displacement field, Y component Displacement field, Y component Displacement field, Y component Displacement field, Y component Displacement field, Y component Displacement field, Y component Displacement field, Y component
0                         2.5347358177415877E-33   8.031657230397799E-33    -6.700336548554765E-33   6.355075194482656E-33    5.400084721478915E-32    1.065129084946495E-32    -3.3010174054489632E-34  -1.0279306718121023E-34  -1.10065356654809E-31    -1.0328909763565165E-31  -3.1245893865382496E-35
5.0E-7                    6.265510249092162E-25    2.970389955305793E-25    -1.0232017832727446E-24  3.0417381886313316E-24   4.318994651664289E-23    -1.87879975710551E-24    9.611066461593903E-26    1.547918608795606E-25    1.2134848088130793E-23   -8.60734091199467E-24    -4.557445390579521E-28
1.0E-6                    -6.1853647354552284E-24  -2.989134927637383E-23   -2.496163239399126E-24   -9.23880275389408E-24    2.9567919534795634E-22   -1.1777234806723415E-23  7.357167387969168E-25    -1.5806731965713502E-24  8.156812759406487E-23    7.579530374836362E-23    6.77914429921336E-26
1.5E-6                    2.7728883874891055E-23   2.0282764080300084E-22   1.087363775674118E-22    -9.356901047482946E-23   -1.5303475951317042E-21  8.817084877095694E-23    -1.5006730717855664E-24  4.6954062545504276E-24   -5.502053700440065E-22   -3.8356430408020934E-22  -3.829089770162193E-25
2.0E-6                    -7.065790077722237E-23   -5.091010394779317E-22   -3.976950257793682E-22   -1.308591618074037E-22   -1.9080420727824386E-21  -8.156512849322557E-23   -1.3167461721422004E-23  3.4089912535829915E-24   1.2112052288180677E-21   1.969487126624574E-21    6.837488437652705E-25
2.4999999999999998E-6     3.674975596856864E-23    5.154180055855214E-22    2.906989490275818E-22    3.672530238066799E-21    2.2548681306449666E-20   -4.593683476547435E-22   -1.79052849458943E-23    -3.1169736043171086E-23  -2.1210413259917837E-21  -3.880475376729488E-21   1.0243519780300597E-24
3.0E-6                    1.3882243277111544E-22   -7.780475868390859E-23   1.0949507544522058E-21   -3.1834423274531256E-21  -1.9093919803443956E-20  6.283127674610561E-22    2.9918834755653154E-22   -1.116520418051759E-23   -1.1526624188892294E-21  -1.0461313686062449E-20  -4.528642815460458E-24
3.5E-6                    1.1780253023773714E-22   -4.0452426250539915E-21  -3.40841272551742E-21    -3.744653823221184E-20   -1.4372476630634702E-19  2.679470462580219E-21    1.1342232394688302E-22   1.5066937587396698E-22   1.6862616656686582E-20   2.8912722759043173E-20   -3.551896781104464E-24
4.0E-6                    3.4662837972433226E-22   1.6586610230215224E-20   6.72567585921864E-21     3.307955157491383E-20    1.8612628150554311E-19   -5.3508108578406586E-21  -3.3570428142959544E-21  8.210261910678636E-23    1.0547988187617405E-21   6.393859975833402E-20    2.1102966493525117E-23
4.5E-6                    -3.84345663584247E-21    1.2376371569590852E-20   1.1229889599475754E-20   2.8253876268661505E-19   7.403025752897527E-19    -6.3680886183247865E-21  -1.5719639455584244E-22  -2.775233669708249E-22   -1.5950684979330526E-19  -1.9889164484918121E-19  1.0941178049396168E-23
4.9999999999999996E-6     -3.1220693255698607E-21  -7.542310672341712E-20   -2.916944794837921E-20   -1.0581408765443795E-19  -6.077635540520052E-19   3.837689983691988E-20    2.6668183743720564E-20   -7.056580960790118E-22   -1.5218964746793764E-19  -4.590445877575352E-19   -5.727431330676769E-23
5.5E-6                    2.4894497479869056E-20   -8.283178053896616E-20   -3.8843310250528876E-20  -1.6796958499619977E-18  -3.055088817234001E-18   -5.551844422904683E-21   -1.3388639743021303E-21  -2.7751559626537752E-21  9.047597789462177E-19    9.475816958699054E-19    -3.184727911896631E-23
6.0E-6                    4.37292953404765E-20     1.3688122080065713E-19   -5.499504792450733E-20   -3.760701435637735E-19   1.1120646710765063E-18   -1.698530792996118E-19   -1.7234084050863577E-19  8.027990019711736E-21    8.782404601651246E-19    1.6595574883280625E-18   -4.1900511950601563E-22
6.5E-6                    -5.1570300729734177E-20  7.5350600427214945E-19   6.049599678601176E-19    7.913782973916118E-18    1.2666953076305853E-17   3.978123325519251E-19    -1.601506541231614E-20   4.177649328701305E-20    -5.293805222147969E-18   -6.2688454295629135E-18  -3.667947592193011E-22
7.0E-6                    -2.703485561531742E-19   7.491027780818198E-19    2.3924471585605896E-18   7.371886124745102E-18    8.49660856520112E-18     1.372447618987757E-18    9.234452983664762E-19    -4.1806687658610106E-20  -1.0814816095390585E-17  -1.1070564308034594E-17  5.917658148316562E-21
7.499999999999999E-6      -4.3733311415944174E-20  -3.0431862848013298E-18  -1.6995062346578259E-18  -2.6225784307278982E-17  -2.4664140142228947E-17  -2.1066077570195776E-18  3.934081525373847E-19    -2.9478411786732756E-19  4.833175036012131E-18    1.802442969317906E-17    4.1208519812923575E-21
8.0E-6                    1.6299376254299475E-18   -3.1093405289900878E-18  -1.1940829056308318E-17  -4.57043133962956E-17    -2.664133162206023E-17   -6.6139871736430754E-18  -4.05193192015968E-18    1.7688235798772196E-19   2.753531223157576E-17    2.6057656560129268E-17   -5.46356213433375E-20
8.5E-6                    2.9410826916695705E-18   1.7528928552166412E-17   1.3747498783794894E-17   6.548611893264503E-17    1.0948877698767186E-16   1.8139020203799806E-17   -3.747836727090299E-18   1.9113591267181554E-18   -4.58604371661529E-17    -1.3508558052623047E-16  -7.492642517780498E-20
9.0E-6                    -1.6106757458411747E-18  1.9447125745791134E-17   8.230795240065444E-17    2.2207195829177325E-16   3.9488920862626395E-16   6.805029225528206E-17    1.3745482161598556E-17   7.5639756978030515E-19   -3.043935559280253E-16   -3.380388102291041E-16   2.6928790429632045E-19
9.499999999999999E-6      -7.048148924115355E-18   -5.264849409808838E-17   4.144322015716637E-17    -1.0439134105894607E-17  5.341645256778681E-16    9.204048553632946E-18    2.303567493614121E-17    -7.274000059961693E-18   -5.024120449329708E-16   -6.701660978428813E-17   5.181879882798484E-19
9.999999999999999E-6      1.1747911929271999E-17   3.382379788395491E-17    -9.198094818104917E-17   -6.339555139480087E-16   7.356231068979373E-17    -1.6789896958382444E-16  -2.905356937013711E-17   -5.9635132007387796E-18  -2.789341182624436E-16   3.285952464673148E-16    -1.353668384282354E-18
1.05E-5                   6.05269972294761E-17     5.89469089888469E-16     2.564254819294248E-16    -2.7746223060446937E-16  1.9402836439382808E-16   1.743948544554139E-16    -9.285221263676674E-17   3.1389946163112315E-17   -8.104194359552915E-16   -1.5488492920205911E-15  -4.390748485743455E-18
1.1E-5                    9.161062727162563E-17    7.366711734620515E-16    1.1399053277063493E-15   2.0675619603932405E-15   5.51740448854536E-15     1.672514650029468E-15    1.7391398185626732E-17   6.485251703620709E-17    -5.271616687137196E-15   -7.236176610035237E-15   8.726761342533358E-19
1.15E-5                   1.1299854200026986E-16   -9.479189915013203E-16   1.2855190584224084E-15   3.4299271886625556E-15   1.8533815348855193E-14   2.9310216870463913E-15   3.042956434688585E-16    -1.8628038793888753E-17  -1.4003506544177771E-14  -1.2202741943180614E-14  1.5851510384241168E-17
1.2E-5                    3.38748892648611E-16     -1.4384346368747E-15     1.9872761892651734E-15   -3.168997830010723E-16   3.050809122094692E-14    1.8580010632356854E-15   3.359929429193316E-16    -1.5110833258159658E-16  -2.2584471628468175E-14  -1.1488996311947241E-14  1.1382843119331693E-18
1.2499999999999999E-5     1.0234452087287238E-15   6.9354343020930294E-15   9.541590460141773E-15    -3.3109677060870407E-15  3.770897856690091E-14    3.616962928651505E-15    -1.8295108764723494E-16  1.105349217710296E-16    -3.927177059721596E-14   -2.1703405237061592E-14  -8.476978293332505E-17
1.3E-5                    2.097114382102908E-15    2.14364289966987E-14     2.3538521875395716E-14   9.956550871461453E-15    8.404003874996826E-14    2.3502386358827955E-14   -4.551206289389188E-16   9.946767802641743E-16    -1.0347687229122507E-13  -8.712919974845947E-14   -1.4660537902861625E-16
1.35E-5                   3.6066181476333815E-15   2.1081388308907845E-14   2.968760656892813E-14    4.0476358650477525E-14   2.516039687271346E-13    6.937931102250351E-14    1.2519585536808682E-15   1.611668115900218E-15    -2.5416668461039864E-13  -2.2938208935065564E-13  1.1644650114349236E-17
1.4E-5                    7.669595556970983E-15    3.780024441048955E-15    3.603273912393392E-14    6.681904057299425E-14    5.701657610290385E-13    1.258681831563019E-13    6.177606812508509E-15    9.360986512125907E-16    -4.84486614976189E-13    -3.9948014005371235E-13  1.9863525940070999E-16
1.45E-5                   2.0029987935548E-14      2.9632309348441783E-14   1.0939691635625663E-13   9.541613353452499E-14    1.0232591172390113E-12   1.9642202029006875E-13   1.413714005971551E-14    9.851984758638104E-16    -8.352118408107581E-13   -5.887266154473246E-13   -4.916167286920624E-16
1.4999999999999999E-5     4.665851589884072E-14    1.638309118081475E-13    2.9815435404367453E-13   2.037427692309918E-13    1.773050954732316E-12    3.933431986347772E-13    2.505836210418075E-14    7.462900607581664E-15    -1.5982816975880947E-12  -1.063965005011009E-12   -2.6349587537392827E-15
1.55E-5                   8.635719990924281E-14    3.5342562293778965E-13   5.084527285336081E-13    4.767270083171204E-13    3.2748491401548413E-12   9.39750499087995E-13     4.550507077776139E-14    2.407377537335617E-14    -3.2497138180654586E-12  -2.3218939828855744E-12  -4.822047809890197E-15
1.6E-5                    1.3701511766554273E-13   4.764028846800236E-13    6.341845351079118E-13    9.315583924623573E-13    5.971492376892096E-12    1.9999807353104922E-12   1.011848787191306E-13    4.7436293464160426E-14   -6.014165265533583E-12   -4.572253438812016E-12   -5.21734628339482E-15
1.6499999999999998E-5     2.329078437325591E-13    6.129477551668595E-13    9.367191656794835E-13    1.6319502154748727E-12   1.0131631276874657E-11   3.572333523101626E-12    2.452358831042256E-13    7.580808044814511E-14    -9.849498494563701E-12   -7.516381433823792E-12   -7.865273745270242E-15
1.7E-5                    4.75658482171526E-13     1.1151686255595047E-12   2.0236780965231174E-12   2.8494352295392506E-12   1.642171890603366E-11    5.821909051087601E-12    5.459464699462488E-13    1.3236049007201543E-13   -1.536258965127111E-11   -1.1283930765691596E-11  -2.6250846218240595E-14
1.75E-5                   9.680110773680758E-13    2.1718900455278553E-12   4.035970664228643E-12    4.864589003890851E-12    2.5990326053360306E-11   9.667609963972768E-12    1.068591579540732E-12    2.826828838856338E-13    -2.417598291464787E-11   -1.7502805258623002E-11  -7.394126430211968E-14
1.8E-5                    1.6588610808354059E-12   3.439306330032859E-12    6.044225319683108E-12    7.601889331426561E-12    3.844902339680935E-11    1.6630858275467606E-11   1.9089866129048883E-12   6.209524795088399E-13    -3.6909398520455476E-11  -2.8167299984422137E-11  -1.5006542133981669E-13
1.85E-5                   2.3332876267318915E-12   4.5292030754333456E-12   7.076347295716315E-12    1.0948910380655738E-11   4.9857808532284156E-11   2.736625475836268E-11    3.299145523719785E-12    1.2267958002265318E-12   -5.06191439299904E-11    -4.256856304418803E-11   -2.5128507658544383E-13
1.8999999999999998E-5     2.9545980763010017E-12   5.884705395426063E-12    8.111064804093541E-12    1.563592628706936E-11    5.5234548549372793E-11   4.020434659708022E-11    5.676748010070154E-12    2.1504351152309342E-12   -6.019508629491769E-11   -5.634609484000641E-11   -4.2646347631619705E-13
1.95E-5                   4.066400435535812E-12    8.641232477690597E-12    1.2219396718719223E-11   2.29055065452929E-11     5.4394657498157005E-11   5.193874902633816E-11    9.542008489283036E-12    3.4964246533029047E-12   -6.35603353597415E-11    -6.50560300882629E-11    -8.208069913466743E-13
1.9999999999999998E-5     6.592136131965784E-12    1.3399432879055172E-11   2.1574880135539404E-11   3.227609870858861E-11    5.27671957949933E-11     6.065525378154601E-11    1.5063821468994165E-11   5.5354061355511955E-12   -6.381114438933562E-11   -6.830815140196857E-11   -1.6183472373387512E-12
2.05E-5                   1.0956853423679399E-11   1.963891090443258E-11    3.4188885068619003E-11   4.0234256741055944E-11   5.3910908544186317E-11   6.716134740480412E-11    2.1692705692783944E-11   8.574419081634969E-12    -6.433716593268448E-11   -6.903512066843313E-11   -2.902900070623733E-12
2.1E-5                    1.6523723187289438E-11   2.6537135109878333E-11   4.437056265114146E-11    4.2925903376190143E-11   5.343952946825762E-11    7.272972667251534E-11    2.8245084332148832E-11   1.246665226883159E-11    -6.326653228045116E-11   -6.913521119936246E-11   -4.640524582220449E-12
2.1499999999999997E-5     2.2236048663846526E-11   3.346836689398982E-11    4.691364911572959E-11    4.0512018341896636E-11   4.385946584030671E-11    7.587436707655938E-11    3.3682005757167336E-11   1.6258692192925543E-11   -5.5258999443561466E-11  -6.755138604490023E-11   -6.919833616911363E-12
2.2E-5                    2.7771703139237063E-11   3.896104247944375E-11    4.0830121235117185E-11   3.7151973952201243E-11   2.3558674659382583E-11   7.256697155178862E-11    3.7995155505471725E-11   1.8743539810523856E-11   -3.7836282062959994E-11  -6.218329546309768E-11   -1.0162930356694333E-11
2.2499999999999998E-5     3.359855704178485E-11    4.012488875361441E-11    2.924921811596128E-11    3.554457065099197E-11    -3.83732909260639E-12    5.974204052388844E-11    4.200564513745046E-11    1.9731969064815406E-11   -1.275932496873099E-11   -5.09115841445439E-11    -1.4788494743414234E-11
2.3E-5                    3.9702321236698965E-11   3.471179053618377E-11    1.6215415265554554E-11   3.260216724466826E-11    -3.829480511166781E-11   3.772862242394966E-11    4.575060369730664E-11    2.051425361135815E-11    1.908135058681489E-11    -2.981503864843102E-11   -2.0390421294545485E-11
2.35E-5                   4.46324917943611E-11     2.3675496219184338E-11   3.4147292149247736E-12   2.1781349413984627E-11   -8.545662069195598E-11   9.040593768878456E-12    4.713010627066876E-11    2.240256533225941E-11    6.109374234490299E-11    6.889347959584048E-12    -2.5386228817955516E-11
2.4E-5                    4.6051754979511076E-11   1.0258022195972505E-11   -1.095377625922759E-11   -9.639673696884934E-13   -1.479209565618791E-10   -2.4948358248880003E-11  4.289702780969987E-11    2.465417080073715E-11    1.1767158368536658E-10   6.246532804905416E-11    -2.791117067916721E-11
2.45E-5                   4.191239855325739E-11    -3.6967308643724455E-12  -3.0587235413120294E-11  -3.443813869534572E-11   -2.192950225581083E-10   -6.666803648491665E-11   3.137953215227676E-11    2.4434723146039024E-11   1.8878801461930607E-10   1.3392468731227757E-10   -2.7290342681889166E-11
2.4999999999999998E-5     3.09860922030702E-11     -1.9222323193338624E-11  -5.777968536078496E-11   -7.433499236726164E-11   -2.902700888636072E-10   -1.2203190948999605E-10  1.3654528914744339E-11   1.9313712684700597E-11   2.6917795324465815E-10   2.1475372735388037E-10   -2.4499296211460672E-11
2.55E-5                   1.3058198587558546E-11   -3.7889115541411655E-11  -9.113479040365934E-11   -1.166016448508866E-10   -3.576015522910019E-10   -1.958916873076431E-10   -8.526794745909882E-12   9.437210083132586E-12    3.525180253120708E-10    3.0138111907867566E-10   -2.1020960960021053E-11
2.6E-5                    -1.054617917394642E-11   -5.993400212637436E-11   -1.2682376889442203E-10  -1.5920201084945027E-10  -4.2414328591067907E-10  -2.8616685748089887E-10  -3.5390768523833194E-11  -3.308588278873578E-12   4.3589811472757514E-10   3.9534987415130374E-10   -1.7217642671576658E-11
2.65E-5                   -3.718468369811715E-11   -8.587223531583678E-11   -1.6228306652939425E-10  -2.0225964680567216E-10  -4.92713824109492E-10    -3.8353153851783633E-10  -6.867617597602801E-11   -1.795231537644825E-11   5.204626026506489E-10    4.98778001911805E-10     -1.1649189172811504E-11
2.7E-5                    -6.520615369247488E-11   -1.1819598348801922E-10  -1.979131619837829E-10   -2.4713106176593106E-10  -5.632498365787551E-10   -4.789147408073302E-10   -1.0858521826014465E-10  -3.5425910360590355E-11  6.080686323561508E-10    6.092622555463055E-10    -1.6905808647172535E-12
2.7499999999999998E-5     -9.664727619704634E-11   -1.5907685847048673E-10  -2.345297981017948E-10   -2.9503702040435184E-10  -6.336080647109818E-10   -5.707875704258199E-10   -1.524536171771669E-10   -5.6991431549036544E-11  6.974491555017283E-10    7.205068948947456E-10    1.507094693153893E-11
2.8E-5                    -1.3660443649255964E-10  -2.0658530430926454E-10  -2.700474376753497E-10   -3.46325399867093E-10    -6.983743324806122E-10   -6.633429769888199E-10   -1.9737838488146842E-10  -8.28340232615941E-11    7.833546277759541E-10    8.271044822163501E-10    3.938568807301004E-11
2.8499999999999998E-5     -1.887743220610204E-10   -2.551952717237299E-10   -3.0026786798442597E-10  -4.0021812724587597E-10  -7.465550650057306E-10   -7.583174015239938E-10   -2.437789988233204E-10   -1.1280935603915706E-10  8.58218142836631E-10     9.26459848285418E-10     6.973149782049766E-11
2.9E-5                    -2.515583485070411E-10   -3.0065090203668273E-10  -3.2322199058411625E-10  -4.536386119322773E-10   -7.639655458842761E-10   -8.507062525206532E-10   -2.9536267142345847E-10  -1.47601520901487E-10    9.132272740561451E-10    1.0146657409053848E-9    1.0324593385137326E-10
2.95E-5                   -3.1874462497854273E-10  -3.429955523021018E-10   -3.414111800149171E-10   -4.998239450829086E-10   -7.399142349700629E-10   -9.316287891414326E-10   -3.5509434280281213E-10  -1.8783088939513836E-10  9.382146382758407E-10    1.0814757131119961E-9    1.3766459556493653E-10
2.9999999999999997E-5     -3.8339092618080704E-10  -3.8387485263988994E-10  -3.5845373230348274E-10  -5.296308359073428E-10   -6.71219314654142E-10    -9.922463240052326E-10   -4.2125617888760833E-10  -2.320260142266448E-10   9.229044277184941E-10    1.111677863203613E-9     1.7254474869643332E-10
3.05E-5                   -4.4062899642342587E-10  -4.2160563011467616E-10  -3.73301493640059E-10    -5.353925901031326E-10   -5.599346412494652E-10   -1.024266427104403E-9    -4.873244406402734E-10   -2.7632226209665963E-10  8.598091776902024E-10    1.092570846978957E-9     2.087009183693155E-10
3.1E-5                    -4.879682923515383E-10   -4.498906828310225E-10   -3.7807584756078114E-10  -5.129365570162581E-10   -4.080951014151933E-10   -1.0191580233677375E-9   -5.453496365730358E-10   -3.1625293705773623E-10  7.450748776006052E-10    1.0190267181712737E-9    2.466406922527425E-10
3.15E-5                   -5.247844497506118E-10   -4.6112810737961636E-10  -3.6173214016486017E-10  -4.598089012468188E-10   -2.1414294398234408E-10  -9.683295811223893E-10   -5.897246078284879E-10   -3.483269458835128E-10   5.754216452964853E-10    8.899348821260391E-10    2.8546935625165157E-10
3.2E-5                    -5.514476448708184E-10   -4.500545763186449E-10   -3.161463159575611E-10   -3.735458392849702E-10   2.7030506032014427E-11   -8.629190180089208E-10   -6.18689348146273E-10    -3.7030317439234587E-10  3.450863817666189E-10    7.00518436178127E-10     3.227004583827542E-10
3.25E-5                   -5.667851589399124E-10   -4.14039757420145E-10    -2.3957077879974045E-10  -2.5301543208564336E-10  3.206224086081038E-10    -6.928288595637843E-10   -6.32736531288914E-10    -3.8124528359717994E-10  4.729662658760013E-11    4.402242536571981E-10    3.5450996335954595E-10
3.2999999999999996E-5     -5.649610108055893E-10   -3.5094994926495045E-10  -1.3527164642183807E-10  -9.980823773657047E-11   6.671077291043165E-10    -4.4773142863825337E-10  -6.30821278470443E-10    -3.8140147177670995E-10  -3.2113008022018457E-10  9.857362675988942E-11    3.7622692036230287E-10
3.35E-5                   -5.357391732471553E-10   -2.5806094760774396E-10  -7.098163471465259E-12   8.376514004004323E-11    1.0599538438876045E-9    -1.2084898047608055E-10  -6.070999492121132E-10   -3.7021462349488995E-10  -7.573687369402577E-10   -3.285239706594764E-10   3.831931959317303E-10
3.4E-5                    -4.692919118743596E-10   -1.3326403186529936E-10  1.4437133849841682E-10   2.974369196127816E-10    1.4881045638389114E-9    2.8817325055271614E-10   -5.513347332004189E-10   -3.429726001553106E-10   -1.2542714191366132E-9   -8.387376592887886E-10   3.7168250998634047E-10
3.45E-5                   -3.608887946363587E-10   2.3761752926433175E-11   3.22352080189152E-10     5.421156893145788E-10    1.940381247145591E-9     7.744622192942593E-10    -4.530189522449399E-10   -2.901899016312453E-10   -1.8028169983434693E-9   -1.426970275029071E-9    3.391346836033571E-10
3.5E-5                    -2.1046424080834685E-10  2.125913459167381E-10    5.307920815492602E-10    8.166685920402308E-10    2.4065936764403613E-9    1.3312999582431984E-9    -3.052824366429966E-10   -2.0215042730710423E-10  -2.392004689130156E-9    -2.0858796346385795E-9   2.834509242197884E-10
3.5499999999999996E-5     -1.8269347816834832E-11  4.3380640972476083E-10   7.697606399226398E-10    1.1167739254096656E-9    2.874360499599704E-9     1.9514595972189874E-9    -1.0518117038106404E-10  -7.489583979720601E-11   -3.00695551094697E-9     -2.8025027706116247E-9   2.020526696400884E-10
3.6E-5                    2.177689422408126E-10    6.881841934859616E-10    1.0321448919277256E-9    1.4358254900119221E-9    3.325957347992962E-9     2.625261890349845E-9     1.4832496910193293E-10   8.839876782168368E-11    -3.627879368107632E-9    -3.5565828226200754E-9   9.171934650707698E-11
3.65E-5                   5.001328178697581E-10    9.73203281610616E-10     1.3037873364981311E-9    1.764284107230437E-9     3.738383283262481E-9     3.3380225562954826E-9    4.551910271757531E-10    2.8170750546417313E-10   -4.230542099596708E-9    -4.323431254902292E-9    -5.0481351015653916E-11
3.7E-5                    8.278420564205279E-10    1.2806515350590316E-9    1.567384951443437E-9     2.0875605027148245E-9    4.08447553421534E-9      4.069674215386645E-9     8.132224186145143E-10    5.01156848184975E-10     -4.786910521021242E-9    -5.0769561868404075E-9   -2.2590580089884168E-10
3.75E-5                   1.1945916065890333E-9    1.5981669797051929E-9    1.8081254851972498E-9    2.38659263290435E-9      4.3325406771789304E-9    4.795947771090369E-9     1.2171548909763828E-9    7.458641557440312E-10    -5.2653724356080904E-9   -5.787757950650705E-9    -4.337664990460155E-10
3.7999999999999995E-5     1.5899414479441994E-9    1.9128581029640257E-9    2.0173883151445865E-9    2.642031980261169E-9     4.447306642567012E-9     5.488114636398057E-9     1.658779428125366E-9     1.014655676808554E-9     -5.631282755224997E-9    -6.418094362366139E-9    -6.715347591432319E-10
3.85E-5                   2.0017343965066794E-9    2.212969712356498E-9     2.1916505073271768E-9    2.837400483656264E-9     4.395654343250375E-9     6.110617527633398E-9     2.1271885777105757E-9    1.3024244652721828E-9    -5.848254236024634E-9    -6.92049262574764E-9     -9.353852743657073E-10
3.9E-5                    2.417521571092077E-9     2.4863928461114994E-9    2.3271515693910474E-9    2.957894875581965E-9     4.153206870180402E-9     6.620259481546055E-9     2.6087870384972652E-9    1.5992231036820104E-9    -5.879570036427188E-9    -7.243103116145884E-9    -1.2196712203669692E-9
3.95E-5                   2.8240696753567635E-9    2.7184798459491674E-9    2.4141559435355635E-9    2.987734080993396E-9     3.7043873132909663E-9    6.9700648170169445E-9    3.0876186447527125E-9    1.8919575084335383E-9    -5.689268311883423E-9    -7.337309459830851E-9    -1.51570656541147E-9
3.9999999999999996E-5     3.2055291612312296E-9    2.8916147002517635E-9    2.4348181414639278E-9    2.9104581272990903E-9    3.03670761373694E-9      7.114854579105283E-9     3.5457965508197852E-9    2.1663537596164896E-9    -5.243523019696389E-9    -7.161144637269793E-9    -1.8112194039092151E-9
4.0499999999999995E-5     3.54158777946464E-9      2.9862535088309364E-9    2.3658746269166487E-9    2.71155347737875E-9      2.1382500195061887E-9    7.012748769262903E-9     3.963247276154338E-9     2.4075482222693377E-9    -4.5132355038804E-9      -6.677697240858213E-9    -2.0912379607489106E-9
4.1E-5                    3.806680466100485E-9     2.9818132556924877E-9    2.1843892627007817E-9    2.3793778373379297E-9    1.002716014335037E-9     6.622506355889979E-9     4.31697121789821E-9      2.5997687050940954E-9    -3.4777202530222648E-9   -5.8533932406967385E-9   -2.3396084395235287E-9
4.15E-5                   3.9708272753623675E-9    2.8572663129659073E-9    1.8734804104416834E-9    1.9035782732032533E-9    -3.637187705895366E-10   5.903063465199884E-9     4.580744393456605E-9     2.7262382265870744E-9    -2.1281089314593703E-9   -4.660057490691871E-9    -2.539854050819035E-9
4.2E-5                    4.0025007950269935E-9    2.5928899355509874E-9    1.4253705877019797E-9    1.2746063502090201E-9    -1.9402740607266896E-9   4.819225945983125E-9     4.7255606118803304E-9    2.769218034518234E-9     -4.690095011713363E-10   -3.0794647313430086E-9   -2.675145423734341E-9
4.2499999999999996E-5     3.8731783955875E-9       2.1735911337891705E-9    8.408101189138275E-10    4.866770154400578E-10    -3.6933358150281974E-9   3.349744581183896E-9     4.7207236388413E-9       2.709648907850065E-9     1.4816587167699316E-9    -1.1068769243327612E-9   -2.7281259398553016E-9
4.2999999999999995E-5     3.5613550181314304E-9    1.5917068141330077E-9    1.263643616663545E-10    -4.582931239113407E-10   -5.578139809391138E-9    1.4916546569872912E-9    4.5359059225067075E-9    2.5273621148972222E-9    3.6931798254659196E-9    1.24730701506539E-9      -2.6810249386583904E-9
4.35E-5                   3.0529711640330236E-9    8.468435283354062E-10    -7.074930155034172E-10   -1.5492926926429195E-9   -7.539568008538297E-9    -7.405655605030169E-10   4.144059252355638E-9     2.2035945521328935E-9    6.121494684723492E-9     3.9559642750358225E-9    -2.5158117747485888E-9
4.4E-5                    2.337902491210119E-9     -5.66760903607605E-11    -1.6457981162366735E-9   -2.7669538247792303E-9   -9.513048508530321E-9    -3.3181905910672057E-9   3.523726015049429E-9     1.7252597516996924E-9    8.707977383365516E-9     6.972795269285696E-9     -2.214423253730292E-9
4.45E-5                   1.4063964495730256E-9    -1.1113624386718224E-9   -2.6673746566992236E-9   -4.083284416838538E-9    -1.1425225241922978E-8   -6.200736152354461E-9    2.6594386965710295E-9    1.087669126765652E-9     1.1379336768915018E-8    1.0230524800268843E-8    -1.759887954838703E-9
4.4999999999999996E-5     2.500769048495048E-10    -2.3048301808880708E-9   -3.7447708648788595E-9   -5.459635996736325E-9    -1.3194489077511672E-8   -9.335750444134827E-9    1.541110300689701E-9     2.933417835123598E-10    1.40495813257728E-8      1.3641522207734358E-8    -1.1389711763879164E-9
4.5499999999999995E-5     -1.132039566983407E-9    -3.6162998640300887E-9   -4.846677797748615E-9    -6.845753506549065E-9    -1.4733253217106004E-8   -1.2655232348424E-8      1.6475973943342206E-10   -6.513611981766048E-10   1.6622777811158727E-8    1.7100489652001508E-8    -3.4557529509952357E-10
4.6E-5                    -2.7266793691918195E-9   -5.014506147307865E-9    -5.940474289202062E-9    -8.182401329328884E-9    -1.5952434580627264E-8   -1.6070941124549994E-8   -1.4645534939555755E-9   -1.7376561225336388E-9   1.899463273346457E-8     2.0487317283224314E-8    6.168936381328886E-10
4.65E-5                   -4.50313374926048E-9     -6.4581375092303205E-9   -6.992042728126665E-9    -9.406596976616205E-9    -1.676567258394185E-8    -1.947305833019838E-8    -3.329302420202082E-9    -2.951759519614584E-9    2.1052882824962047E-8    2.366904372553689E-8     1.7353203799231504E-9
4.7E-5                    -6.414944243149588E-9    -7.897562260405629E-9    -7.963034061956313E-9    -1.0456453220152421E-8   -1.7091996078802857E-8   -2.2734045333950166E-8   -5.397951321622875E-9    -4.270279738638574E-9    2.2678917883825058E-8    2.6501881515783792E-8    2.988223692707417E-9
4.7499999999999996E-5     -8.404377454379659E-9    -9.276787109539625E-9    -8.808954417126158E-9    -1.127374213917609E-8    -1.6859383858982877E-8   -2.5714489827103647E-8   -7.626059646135351E-9    -5.657336784828982E-9    2.3752970992432527E-8    2.883505215609249E-8     4.3470406417772355E-9
4.8E-5                    -1.0406647315275348E-8   -1.0535736189110299E-8   -9.481073397945061E-9    -1.1804504900814166E-8   -1.6011159648579445E-8   -2.8267088509820802E-8   -9.958828828097835E-9    -7.065497292715305E-9    2.4162364930135593E-8    3.0516856201919593E-8    5.7763403122560175E-9
4.85E-5                   -1.2351658362527028E-8   -1.161249337940373E-8    -9.931551119857493E-9    -1.1999185114267254E-8   -1.4512496737842167E-8   -3.023938457823869E-8    -1.2332987562805607E-8   -8.439527099861242E-9    2.3809704709584932E-8    3.140154351471556E-8     7.233139693075647E-9