% Model:              Untitled.mph
% Version:            COMSOL 6.0.0.405
% Date:               Jul 15 2025, 16:24
% Dimension:          1
% Nodes:              401
% Expressions:        11
% Description:        Point graph
% Time (s)                Displacement field, Y component Displacement field, Y component Displacement field, Y component Displacement field, Y component Displacement field, Y component Displacement field, Y component Displacement field, Y component Displacement field, Y component Displacement field, Y component Displacement field, Y component Displacement field, Y component
0                         -2.7565236667093432E-31  -1.7541714248195013E-32  -3.605698940440651E-34   -1.6815809051722304E-35  -1.1570789130285872E-37  -3.468659797062985E-38   -2.657487767221224E-39   -3.061352155235959E-40   6.349900459657781E-31    1.8965909958063974E-33   2.0007233821567668E-36
5.0E-7                    4.33849656302511E-23     1.6151436126626264E-24   1.2560740878960282E-26   4.339012207763171E-28    4.362971799690235E-30    -7.084315807140529E-29   -1.124468138931526E-29   -3.833218381416911E-30   -9.065049302032494E-23   -1.6930136958673184E-25  -7.614817251621342E-29
1.0E-6                    -6.607539077621173E-23   4.266339108029234E-24    2.921326064849359E-25    1.0075451248582745E-26   1.9857441925163845E-28   3.997509217994158E-28    5.5963170568362E-29      2.237382458877386E-29    8.919499674724532E-23    -7.610531407796978E-25   -2.3032011516042156E-27
1.5E-6                    8.121870021096057E-25    -4.9603287134172615E-23  -1.2220906329832806E-24  -8.781919200087207E-27   -1.0014130154059308E-27  3.846461359189202E-28    1.5138029218523609E-28   3.7414247847962627E-29   3.895223236421737E-22    4.794136844654297E-24    8.574119866422719E-27
2.0E-6                    2.8982945119532735E-22   2.473999642497942E-22    1.6801762242287207E-24   -7.425165482691487E-26   -4.888077602320025E-28   -7.900152512039518E-27   -1.1971590211799633E-27  -4.679581221994743E-28   -3.2891313253231178E-21  -1.0242259640632893E-23  1.690864792688428E-26
2.4999999999999998E-6     -1.6660395833499069E-21  -6.120590177200948E-22   7.483764098378387E-25    -9.228836523957277E-26   1.818774008059589E-26    1.4073881725663567E-26   -3.683100165521143E-28   1.4632761353434731E-28   1.2184874019066898E-20   9.54547687177215E-24     -1.5873943021254848E-25
3.0E-6                    4.172147742331516E-21    -2.9494171801861877E-22  -3.2656725108701455E-24  1.2962205544516767E-24   -4.079232922395813E-26   6.594729676911569E-26    1.0503191472580978E-26   4.233395613054198E-27    -3.021782052221432E-20   -7.969820782242298E-24   1.177430248019532E-25
3.5E-6                    1.3370092967560318E-22   2.8300224805796228E-21   -4.933467738616464E-24   -2.5242722818446752E-24  -1.2346083429440753E-25  -2.1254161891584486E-25  5.209587137553094E-27    -4.261829849809601E-28   4.4547461574675064E-20   6.561353282425582E-23    1.369026005339886E-24
4.0E-6                    -3.123969018749055E-20   3.895228251970507E-21    1.2878676764345912E-23   -3.2813670768682606E-24  5.690435730457603E-25    -5.921272107150628E-25   -7.952272789978133E-26   -3.618999820469317E-26   1.0199847830243672E-19   -3.4478392212810494E-22  -2.896457917903518E-24
4.5E-6                    1.1106236657657444E-21   -1.5343210774714234E-20  -8.01939068126769E-23    2.5095449289898873E-23   4.647993089176191E-25    1.958458523571212E-24    -1.0191601705063406E-25  -2.0447980701481656E-26  -4.2065457157067507E-19  2.2414270226885068E-22   -7.823581390921898E-24
4.9999999999999996E-6     5.698234237124652E-20    -6.790761364076138E-20   3.062047674125934E-22    1.9925917480982998E-25   -4.55949555085495E-24    6.04408503177693E-24     5.57971436469724E-25     2.883699640363229E-25    -8.673956786331826E-20   5.088128997757976E-21    2.811912528336161E-23
5.5E-6                    -3.749072640806548E-19   8.888392978212018E-20    9.81209945914684E-22     -1.8545813101068047E-22  -1.0819358050457561E-24  -1.2779217410635011E-23  1.2159532456061662E-24   3.4994767456572056E-25   1.620599256445322E-18    -5.453649708514405E-21   3.882881288903214E-23
6.0E-6                    -5.551503614392005E-19   4.968086357612295E-19    -5.741030392424515E-21   -1.4076805069613386E-22  2.820460841478746E-23    -5.394101131639287E-23   -3.2085403934982084E-24  -1.8810768137670474E-24  2.516142731352917E-18    -3.2301308993267056E-20  -2.0117804406426562E-22
6.5E-6                    3.81518260619804E-19     -5.593171872539864E-19   -1.1609219810421518E-20  9.729513180616558E-22    7.800141503600637E-25    4.793027267391061E-23    -1.0819898766594563E-23  -3.675622826004803E-24   -2.381616383254281E-18   5.3756836275316953E-20   -1.845398165737965E-22
7.0E-6                    -3.112033251089373E-18   -3.403086734360444E-18   3.909977283366714E-20    1.7629926353002252E-21   -1.5036805657207848E-22  3.742532542915824E-22    1.2444693771861494E-23   9.045336007354235E-24    -1.7180606683006316E-17  2.435891351216122E-19    1.2164883455544096E-21
7.499999999999999E-6      -1.478643777786317E-17   1.881490286159381E-19    8.60270997607622E-20     -3.958540403711485E-21   1.0300804254163712E-24   3.8551548828984097E-23   7.542901004821376E-23    2.854425279133171E-23    1.2646003716823417E-17   -6.581193273245781E-20   1.0815583706007715E-21
8.0E-6                    -3.22738387592539E-17    1.2809344575337675E-17   -2.3452486805341872E-19  -1.5534646422243532E-20  7.225444688487816E-22    -1.9398303159142337E-21  -8.084133785409342E-24   -2.4581761746994733E-23  1.451246677423427E-16    -7.759082686316217E-19   -5.884635679637578E-21
8.5E-6                    -6.795825013588809E-17   -9.009996866952251E-20   -7.860288184134443E-19   -6.128275111625391E-21   2.226054465253729E-23    -1.99579686886068E-21    -4.09436684681873E-22    -1.6672568675445617E-22  1.4042489848192475E-16   1.326343525937047E-18    -5.936911222821598E-21
9.0E-6                    -1.3955161649333746E-16  -6.820897947218064E-17   1.814328513614442E-19    4.104042414602687E-20    -3.428702274141572E-21   6.812403774993025E-21    -3.3203123201953447E-22  -4.3727893825191055E-23  -2.2698221675653965E-16  8.207062511568409E-18    2.6371816236360453E-20
9.499999999999999E-6      -3.859712524195519E-16   -9.899434191181676E-17   2.6898545191999562E-18   3.703645866864953E-20    -1.1701438212691714E-21  1.5062925286057767E-20   1.611776580178084E-21    7.007828672967967E-22    -1.2454137376158018E-17  1.110618346689935E-17    4.252472452384733E-20
9.999999999999999E-6      -1.3035208512962673E-15  2.819753388095136E-17    -1.7782975503888486E-18  -2.127464380005696E-19   1.4085296542353996E-20   -1.1993296513803385E-20  3.030691820116218E-21    9.240469137830124E-22    2.1589241381326132E-15   9.500968729372004E-18    -6.444015396038582E-20
1.05E-5                   -3.2593174218548356E-15  3.620279370860118E-17    -2.2019871671591516E-17  -8.559363508844826E-19   8.084798593099477E-21    -6.99865030353662E-20    -3.7802153071931764E-21  -1.7997292329903035E-21  5.0315621703221744E-15   6.365960349341391E-17    -1.446428831576974E-19
1.1E-5                    -6.223188825499654E-15   -7.918252460177785E-16   -4.030894444518879E-17   -1.778055662700004E-18   -6.545517926921379E-20   -3.6180168019866644E-20  -1.6202978538207E-20     -5.608434772727224E-21   6.4608562207693245E-15   2.735087043827772E-16    2.9302544762894254E-19
1.15E-5                   -1.3396463757017405E-14  -2.6860534242386456E-15  -3.272270629698229E-17   -2.622812734429545E-18   -9.883702779946053E-20   1.8577958660898902E-19   -3.529859273728556E-21   -1.0677109903540818E-22  1.2201227028373184E-14   6.783453584753779E-16    1.1817894197117761E-18
1.2E-5                    -3.5983143602768066E-14  -5.069393199850352E-15   -9.182384867294148E-17   -5.397795355624331E-18   1.210342567038131E-19    3.0049969416560966E-19   5.3713526363642096E-20   1.9503384422092928E-20   3.763940616067668E-14    1.481607738231504E-15    1.3490021739332082E-18
1.2499999999999999E-5     -9.004142356934185E-14   -9.110610967188535E-15   -5.0342556629792E-16     -2.2367376383562938E-17  2.264146934871327E-19    -2.8141425648109056E-19  7.126113316161582E-20    2.4894340996750783E-20   9.634766816806994E-14    3.836325756775569E-15    1.3521752727413322E-18
1.3E-5                    -1.9616692941443864E-13  -2.1353503952481864E-14  -1.5711587040339851E-15  -8.10637276421421E-17    -1.0530975836685001E-18  -1.3567450994975402E-18  -1.0149028498207892E-19  -3.224795814932168E-20   2.0231336225833388E-13   1.0461278438879491E-14   8.203297380642118E-18
1.35E-5                   -4.0969488731086497E-13  -5.432654095255268E-14   -3.555534256924046E-15   -2.1497383253596609E-16  -3.927793813383181E-18   -1.2220842072798343E-18  -3.7139476718682406E-19  -1.2469875607608117E-19  4.052016065277422E-13    2.5975807295797808E-14   3.366846006915659E-17
1.4E-5                    -8.634301358968574E-13   -1.2708351933545294E-13  -7.723383526408757E-15   -4.79610780028732E-16    -5.919615588654428E-18   1.1647871608098357E-18   -1.9555277985514086E-19  -7.287331385660739E-20   8.247058424910685E-13    5.967686465755647E-14    8.788288230355265E-17
1.45E-5                   -1.770331311403794E-12   -2.743467364117808E-13   -1.8717321742668215E-14  -1.0956914546981576E-15  -9.397731503763543E-18   2.2862232149893835E-18   7.80948451120006E-19     2.789563656190411E-19    1.664085255973357E-12    1.3339110326497185E-13   2.0053754997565533E-16
1.4999999999999999E-5     -3.4365112435698075E-12  -5.646427104516781E-13   -4.6721045275504745E-14  -2.742881648467803E-15   -3.756430531113138E-17   -4.944443594293008E-18   1.433136335129011E-18    6.071352415737603E-19    3.2607280987892185E-12   2.926348456833983E-13    5.015724003611811E-16
1.55E-5                   -6.390743752205478E-12   -1.1223301532619268E-12  -1.0890847980550653E-13  -6.872264472820572E-15   -1.3573626165319795E-16  -2.2513436971805302E-17  -7.546786036395247E-19   -2.0386036044310947E-21  6.155913451297605E-12    6.189858822374763E-13    1.3271948305302519E-15
1.6E-5                    -1.1447200491102384E-11  -2.158016277619683E-12   -2.35073361067924E-13    -1.609490959488198E-14   -3.554337069400406E-16   -4.300147375108252E-17   -6.225672030704305E-18   -1.8623255808285472E-18  1.098266831064099E-11    1.2447279186260488E-12   3.3249603026655743E-15
1.6499999999999998E-5     -1.9285376912749E-11     -3.996980895611581E-12   -4.851319625164291E-13   -3.537549601279118E-14   -8.118989011888658E-16   -6.443559554741107E-17   -8.987009674791742E-18   -2.7347036743891358E-18  1.8151406475989158E-11   2.364142635926798E-12    7.777046688750551E-15
1.7E-5                    -2.973433635599505E-11   -7.0401414121349915E-12  -9.762377891908388E-13   -7.523693748813778E-14   -1.9384622780266746E-15  -1.1443495463672037E-16  -1.0300354392183405E-19  1.2533513468605161E-18   2.7760519376925437E-11   4.227227831466091E-12    1.7552305127312292E-14
1.75E-5                   -4.179786632573951E-11   -1.159707489378301E-11   -1.900002848625353E-12   -1.577295275295636E-13   -4.878768819735719E-15   -2.6465672419784585E-16  1.4477331243582487E-17   8.74684541756957E-18     3.9864242945778116E-11   7.1072866407071325E-12   3.880851428908076E-14
1.8E-5                    -5.4754712002733675E-11  -1.767873195383581E-11   -3.512121117476749E-12   -3.2462601322597677E-13  -1.182662879303597E-14   -6.651584387131496E-16   -3.609350847235451E-18   7.187013857514905E-18    5.4258018842225265E-11   1.12234541791256E-11     8.342203057107948E-14
1.85E-5                   -6.870746591621433E-11   -2.4974513461975913E-11  -6.106769182713881E-12   -6.458211714447243E-13   -2.6649373938625518E-14  -1.6419337684965798E-15  -1.0353931516200358E-16  -1.604204364172295E-17   6.930809885804634E-11    1.6576326512842397E-11   1.7291326555122624E-13
1.8999999999999998E-5     -8.302700207440065E-11   -3.309066809355284E-11   -9.993303611265877E-12   -1.2256476820506246E-12  -5.707562135176509E-14   -3.786197480666344E-15   -2.754867898108362E-16   -4.605148324814816E-17   8.142948050885156E-11    2.275221697354961E-11    3.443962342420286E-13
1.95E-5                   -9.436446244913025E-11   -4.1743399479610267E-11  -1.5418146576834942E-11  -2.2073008838911546E-12  -1.193385906477681E-13   -8.007026419187725E-15   -4.3525523129174866E-16  -3.8108999817367015E-17  8.704963012069607E-11    2.8951399826332785E-11   6.556594406325812E-13
1.9999999999999998E-5     -9.767119504070394E-11   -5.049360966244076E-11   -2.2323354230087617E-11  -3.775186571789305E-12   -2.435012986979264E-13   -1.6071870335410873E-14  -6.258554588602817E-16   1.9283897609066214E-17   8.537761678585719E-11    3.4377729581632005E-11   1.1850733425071757E-12
2.05E-5                   -8.999798349143386E-11   -5.815150257233221E-11   -3.0014741314905764E-11  -6.135691686405462E-12   -4.759862117217292E-13   -3.247103468116142E-14   -1.3805023206859363E-15  2.880558079426857E-17    7.798122966803805E-11    3.8553370835586447E-11   2.0281231249440226E-12
2.1E-5                    -7.22467849983901E-11    -6.263919671808229E-11   -3.712027048900715E-11   -9.422932809401958E-12   -8.796727889482474E-13   -6.707279045403239E-14   -3.809606421287592E-15   -1.7020875545795588E-16  6.502599646600029E-11    4.098121733515774E-11    3.290656042640161E-12
2.1499999999999997E-5     -4.6127462729796305E-11  -6.182559302684178E-11   -4.210301510095735E-11   -1.3496343516288438E-11  -1.5371351172370352E-12  -1.3611993163253126E-13  -9.098863314097826E-15   -6.151252125181878E-16   4.334395954382696E-11    4.056170150273691E-11    5.049355044394165E-12
2.2E-5                    -1.037300134431642E-11   -5.4620306809863286E-11  -4.389893142297461E-11   -1.774612618965385E-11   -2.5545920351647313E-12  -2.610633394698281E-13   -1.8141351495519445E-14  -1.1314172897252435E-15  9.602555273740985E-12    3.595362629176292E-11    7.2337902504182846E-12
2.2499999999999998E-5     3.8352717384455674E-11   -4.1002743161526945E-11  -4.1924401383673604E-11  -2.1190424677878198E-11  -4.0401515578796E-12     -4.710844266695651E-13   -3.2947898700497554E-14  -1.6373753478169584E-15  -3.560284704653518E-11   2.6867681233960326E-11   9.473938262838621E-12
2.3E-5                    1.0112756869688763E-10   -2.084015606539556E-11   -3.5561372485315016E-11  -2.301346431151528E-11   -6.022627946327583E-12   -8.166517224640079E-13   -6.047606643914475E-14   -2.7621911741592583E-15  -8.895928554881888E-11   1.4425737085205799E-11   1.1116834613265905E-11
2.35E-5                   1.7531909064919197E-10   7.002140513435655E-12    -2.4170167683208316E-11  -2.3164399354844867E-11  -8.327767806697243E-12   -1.3888543964600652E-12  -1.166183919924719E-13   -6.174913783671417E-15   -1.5002331206360708E-10  -5.151958911098138E-13   1.1581641305108032E-11
2.4E-5                    2.581630793029872E-10    4.400774732982083E-11    -7.902302529167309E-12   -2.2290708033193546E-11  -1.0511863411555194E-11  -2.320511584678806E-12   -2.2637751506133033E-13  -1.4024980015348391E-14  -2.236078341037486E-10   -1.9180524902490594E-11  1.083060545823974E-11
2.45E-5                   3.503093933648177E-10    9.062079986970686E-11    1.2079200684941386E-11   -2.083398083293399E-11   -1.1960062606918164E-11  -3.742363951458883E-12   -4.1930937859850335E-13  -2.801991348974783E-14   -3.148810636899222E-10   -4.4235499249296016E-11  9.385561689623266E-12
2.4999999999999998E-5     4.542649217276082E-10    1.4598395939003105E-10   3.498519074533801E-11    -1.818304951392894E-11   -1.212252329279998E-11   -5.6934043247179605E-12  -7.270335975665349E-13   -5.047889914886319E-14   -4.225782728100663E-10   -7.72592330988283E-11    7.676434673139343E-12
2.55E-5                   5.696454705537444E-10    2.091321111403909E-10    6.188735238091674E-11    -1.2911304742958484E-11  -1.0706673680098894E-11  -8.026793729629664E-12   -1.1949522863398483E-12  -8.955871229772575E-14   -5.385186422440261E-10   -1.174833475865058E-10   5.404084249876996E-12
2.6E-5                    6.913408007484476E-10    2.799024610593994E-10    9.502183388017459E-11    -3.840037507019245E-12   -7.684664631602825E-12   -1.0381429923182088E-11  -1.9095780900921956E-12  -1.6583116952252947E-13  -6.536488817322608E-10   -1.6310454491050706E-10  1.8081423484983565E-12
2.65E-5                   8.124252643055938E-10    3.580797250595137E-10    1.3539888103063542E-10   9.384156997396625E-12    -3.2073954220010717E-12  -1.2267340856242021E-11  -3.0091476671003523E-12  -3.1129519898314976E-13  -7.627897853351443E-10   -2.1305490280836244E-10  -3.3968258594550405E-12
2.7E-5                    9.270144968006378E-10    4.4159465208301207E-10   1.8163508980323878E-10   2.6750836307497125E-11   2.3889503544537804E-12   -1.3229744899527178E-11  -4.6166000854905206E-12  -5.570286605928524E-13   -8.630913648036857E-10   -2.66997796586706E-10    -9.746373013020242E-12
2.7499999999999998E-5     1.0288726865717394E-9    5.259484732322036E-10    2.312000184033449E-10    4.8462467136059006E-11   8.560330262608899E-12    -1.2974835753286282E-11  -6.674261532125182E-12   -9.254964422186532E-13   -9.502205037542037E-10   -3.2412617820021705E-10  -1.6979243346291565E-11
2.8E-5                    1.1085407198507074E-9    6.056864656967139E-10    2.819912376595399E-10    7.473916748474435E-11    1.4842190876406074E-11   -1.136504148543862E-11   -8.788280990332101E-12   -1.4522138268106635E-12  -1.0180542573897898E-9   -3.826794763952542E-10   -2.5897028984443644E-11
2.8499999999999998E-5     1.1542481844654137E-9    6.763182808175218E-10    3.3228057406829286E-10   1.0527194222100659E-10   2.1435603656551467E-11   -8.321280456532314E-12   -1.0287050540435867E-11  -2.2254834929044834E-12  -1.060576906084663E-9    -4.404300667685952E-10   -3.762494472235022E-11
2.9E-5                    1.1557410122860852E-9    7.345514365998884E-10    3.799630179468942E-10    1.3911242246801407E-10   2.94091575835705E-11     -3.744904492440023E-12   -1.0574252846333013E-11  -3.374162198140248E-12   -1.0710768811272074E-9   -4.947478694602498E-10   -5.198686850790076E-11
2.95E-5                   1.1053307016866202E-9    7.767190633758209E-10    4.228126756215189E-10    1.7489357991487136E-10   3.9921050667338636E-11   2.5059232604565777E-12   -9.533386212500206E-12   -4.941331271320617E-12   -1.0392942505754472E-9   -5.417626276093003E-10   -6.724009347632909E-11
2.9999999999999997E-5     9.950518520750235E-10    7.972871042165134E-10    4.5915531231632847E-10   2.1096169596209115E-10   5.3025043737154893E-11   1.0629879461452732E-11   -7.567417664514469E-12   -6.7049296815321395E-12  -9.51880574935246E-10    -5.759469409750769E-10   -8.174532233001106E-11
3.05E-5                   8.151866911140226E-10    7.888543685481101E-10    4.871844831325628E-10    2.4559074685224654E-10   6.740511635251508E-11    2.0849820243946934E-11   -5.154972619396695E-12   -8.1361948063996E-12     -7.970555649211365E-10   -5.911205241604429E-10   -9.545543883315418E-11
3.1E-5                    5.568464145367652E-10    7.430862946923464E-10    5.031749979997852E-10    2.773334601630584E-10    8.141660078095272E-11    3.3227762168249685E-11   -2.3441369997118205E-12  -8.635202426373631E-12   -5.679713177299426E-10   -5.818270138459736E-10   -1.0929458293678915E-10
3.15E-5                   2.1428377334955366E-10   6.514114599968872E-10    5.00829945541331E-10     3.048140636493768E-10    9.418260421624141E-11    4.741723127899167E-11    1.2749253024529914E-12   -7.928727231300725E-12   -2.6130150725180835E-10  -5.434587312624619E-10   -1.2330323526573047E-10
3.2E-5                    -2.1671381285874205E-10  5.055206082670865E-10    4.728493867950025E-10    3.257986767461722E-10    1.0551661955276935E-10   6.268248657584588E-11    6.129398652605786E-12    -6.300785780428114E-12   1.2560462122513097E-10   -4.713240641925938E-10   -1.3584965502083548E-10
3.25E-5                   -7.406059378918102E-10   2.984591071098587E-10    4.132596598484187E-10    3.3680824499518176E-10   1.1508338467930816E-10   7.830389009620587E-11    1.2347850188825597E-11   -4.408356840726159E-12   5.945495856334415E-10    -3.602814777006908E-10   -1.445614401589654E-10
3.2999999999999996E-5     -1.358865121390283E-9    2.6195483226824292E-11   3.184806714390265E-10    3.341584656079696E-10    1.2198754698896218E-10   9.394974876650311E-11    1.9975063972340837E-11   -2.7713588749828697E-12  1.143890160232064E-9     -2.0559832409270982E-10  -1.476175424870468E-10
3.35E-5                   -2.064181465397613E-9    -3.114886472810843E-10   1.8672783537147715E-10   3.151920299623652E-10    1.2492783396387346E-10   1.0951799702913471E-10   2.9353190192965805E-11   -1.3038095358158272E-12  1.7668420396822554E-9    -4.049617979649042E-12   -1.4418904880554468E-10
3.4E-5                    -2.839190333932567E-9    -7.114553075321542E-10   1.6826533764538732E-11   2.7808581474906363E-10   1.2221123508461536E-10   1.245971068147892E-10    4.0998282314955756E-11   7.685546085607213E-13    2.451432433868412E-9     2.456799353916369E-10    -1.341019869242866E-10
3.45E-5                   -3.6605198413567125E-9   -1.1682549410456248E-9   -1.924032913973186E-10   2.208760261390077E-10    1.1168382942800905E-10   1.3819188039949956E-10   5.495586558340208E-11    4.5304378338160895E-12   3.1803381771828267E-9    5.429759273962167E-10    -1.172181204113797E-10
3.5E-5                    -4.501299589991482E-9    -1.6744875714494643E-9   -4.4178197054124075E-10  1.4155716075007085E-10   9.134302942977243E-11    1.4893577755191237E-10   7.039298936050904E-11    1.0767926288828015E-11   3.9300226214056484E-9    8.849165405532369E-10    -9.277780170605557E-11
3.5499999999999996E-5     -5.328420144365404E-9    -2.2202124972293533E-9   -7.307281048175249E-10   3.911865816358667E-11    6.044857606996782E-11    1.5528681551853566E-10   8.598442695623097E-11    1.95130095582741E-11     4.670606078796874E-9     1.265642196279471E-9     -5.907510000760087E-11
3.6E-5                    -6.0998545406508995E-9   -2.792201825859879E-9    -1.0561295942775308E-9   -8.653473173154564E-11   1.9830872002018444E-11   1.5532584371717025E-10   1.006762668916005E-10    3.004993278147597E-11    5.3673893531232225E-9    1.6762344364548371E-9    -1.3918822331244446E-11
3.65E-5                   -6.767781047237402E-9    -3.3735021726533203E-9   -1.411544551630718E-9    -2.3622078861805136E-10  -2.915366604947715E-11   1.4658292695428857E-10   1.1393851855888265E-10   4.138890347386755E-11    5.982858791553708E-9     2.1052022459702296E-9    4.438106227717928E-11
3.7E-5                    -7.284454481868915E-9    -3.942801014966197E-9    -1.7868464380030218E-9   -4.1218227863185525E-10  -8.592063815919822E-11   1.264949748023197E-10    1.252671490074767E-10    5.28538892280698E-11     6.477418284503875E-9     2.538619910975959E-9     1.163959099007969E-10
3.75E-5                   -7.60388105702374E-9     -4.473245688375038E-9    -2.1683121673179995E-9   -6.15814723501609E-10    -1.5092915709816443E-10  9.323951048757056E-11    1.336001834359032E-10    6.432254586336121E-11    6.808902322621693E-9     2.959389963373845E-9     2.0163137214914443E-10
3.7999999999999995E-5     -7.679065261812735E-9    -4.931522142837143E-9    -2.539091971112912E-9    -8.441727966644538E-10   -2.2493384687743608E-10  4.604037229145924E-11    1.3734058277932087E-10   7.59551270480657E-11     6.9327905305246266E-9    3.3467365949437647E-9    2.98600448698784E-10
3.85E-5                   -7.460833702785764E-9    -5.2784748146992734E-9   -2.8798676497781514E-9   -1.0890368472412871E-9   -3.080240230734164E-10   -1.5348385377986626E-11  1.3490349539571126E-10   8.770403686052476E-11    6.804419600580902E-9     3.6771954251153204E-9    4.045473890864996E-10
3.9E-5                    -6.901316406725567E-9    -5.471756971570616E-9    -3.1695290309784078E-9   -1.3395721261392498E-9   -3.9891437358866715E-10  -9.118362982210119E-11   1.2514306084371241E-10   9.903857210679844E-11    6.382202442891853E-9     3.926299219521975E-9     5.1544249300094E-10
3.95E-5                   -5.9593581886953E-9      -5.469865285035519E-9    -3.385827186711808E-9    -1.5854784160852087E-9   -4.945663930082923E-10   -1.8145494200758434E-10  1.0723799718472923E-10   1.0900571526992336E-10   5.6302139678677276E-9    4.069024936040073E-9     6.267169804009184E-10
3.9999999999999996E-5     -4.604604845929733E-9    -5.23612159762703E-9     -3.5058846650866603E-9   -1.8172573894798818E-9   -5.903196443192942E-10   -2.8502611666997184E-10  8.022455758520153E-11    1.1637937184614995E-10   4.520294258825288E-9     4.0790225487946624E-9    7.340190037898998E-10
4.0499999999999995E-5     -2.8197442397782712E-9   -4.740938912586049E-9    -3.5065361068885287E-9   -2.0239248406816273E-9   -6.80588615237913E-10    -3.9920860920878915E-10  4.269929298285202E-11    1.1969757110667927E-10   3.034941172046614E-9     3.9288396831986144E-9    8.330597073931269E-10
4.1E-5                    -6.018165378297599E-10   -3.961640590984235E-9    -3.365129038392073E-9    -2.1912939997923506E-9   -7.595972307223712E-10   -5.20263175662535E-10    -6.9499626977491094E-12  1.1734708159036736E-10   1.170730471298032E-9     3.592325023969314E-9     9.188606058909552E-10
4.15E-5                   2.0358876440835797E-9    -2.8812767835173774E-9   -3.0614862459095865E-9   -2.3027283124270886E-9   -8.214896613066945E-10   -6.442234080029221E-10   -6.988789912628789E-11   1.0794124187548061E-10   -1.059583544316742E-9    3.047714147203398E-9     9.854867759266529E-10
4.2E-5                    5.0599151631970775E-9    -1.489418092516043E-9    -2.5802042536334756E-9   -2.3413039086852907E-9   -8.599716173529999E-10   -7.670965148426955E-10   -1.4623962246561204E-10  9.08055181122933E-11     -3.6268070023855373E-9   2.2795058776286026E-9    1.0265320377055548E-9
4.2499999999999996E-5     8.412078507163677E-9     2.1359870758746287E-10   -1.9113438852255825E-9   -2.291441569196817E-9    -8.683771253915894E-10   -8.842364806445881E-10   -2.350034814538824E-10   6.599497351409229E-11    -6.484980306509781E-9    1.2792452868441556E-9    1.0356185789953268E-9
4.2999999999999995E-5     1.2008247331621868E-8    2.21132958425838E-9      -1.0493968203245005E-9   -2.1394891565072046E-9   -8.405262775395346E-10   -9.895605544587781E-10   -3.3440572086212816E-10  3.359778826144034E-11    -9.569496623405428E-9    4.650204997953046E-11    1.0064368393553441E-9
4.35E-5                   1.5741750588879413E-8    4.469050801445635E-9     6.853381258868259E-12    -1.873855845522185E-9    -7.715227332665794E-10   -1.0753482018515541E-9   -4.4218477574892084E-10  -7.088013530173909E-12   -1.279511470121228E-8    -1.4096140484339706E-9   9.326829702631066E-10
4.4E-5                    1.9487277432452026E-8    6.9362346443256704E-9    1.2517570661475343E-9    -1.485034824871382E-9    -6.57534449168735E-10    -1.1327246673694105E-9   -5.554410161524469E-10   -5.7587115141052254E-11  -1.6056463122550878E-8   -3.0691572668965546E-9   8.083275324833511E-10
4.45E-5                   2.310158428120052E-8     9.550550050984487E-9     2.6693909401526794E-9    -9.656534032219271E-10   -4.94973709730171E-10    -1.1524112608328122E-9   -6.702658296721473E-10   -1.192786571899681E-10   -1.923130414969206E-8    -4.9007422076879804E-9   6.281550666594692E-10
4.4999999999999996E-5     2.642326406019269E-8     1.223906513364066E-8     4.2323467818898954E-9    -3.1131957028358834E-10  -2.8047291560388163E-10  -1.1253652172461315E-9   -7.816401978413414E-10   -1.922455244052351E-10   -2.2184532305049264E-8   -6.861377273291013E-9    3.8839970832668545E-10
4.5499999999999995E-5     2.927631461888061E-8     1.4915618041811694E-8    5.902743874246786E-9     4.770863718089841E-10    -1.2155074618352752E-11  -1.0432088971906444E-9   -8.837445617777387E-10   -2.7494162778234243E-10  -2.4771813699152858E-8   -8.896528234930579E-9    8.752881418189016E-11
4.6E-5                    3.147817792105502E-8     1.7477405599359436E-8    7.633112327085917E-9     1.3908165969727567E-9    3.0891236277757503E-10   -8.984721518797106E-10   -9.703488695678281E-10   -3.6480661926809766E-10  -2.6843983649884186E-8   -1.094055369620378E-8    -2.729083389516973E-10
4.65E-5                   3.284908185492517E-8     1.980499562512217E-8     9.366300703333115E-9     2.4126392381243183E-9    6.783388102157716E-10    -6.847645886268721E-10   -1.034933697742079E-9    -4.590291975974549E-10   -2.8253174193710232E-8   -1.2917529618018833E-8   -6.878603090139198E-10
4.7E-5                    3.3220546968136124E-8    2.1767520917392297E-8    1.103591669381226E-8     3.5185750527015807E-9    1.0889669962451144E-9    -3.972135464512797E-10   -1.0705391474356105E-9   -5.546769189218708E-10   -2.8859672234291123E-8   -1.4742400143428432E-8   -1.149152713391153E-9
4.7499999999999996E-5     3.2443327689251795E-8    2.3230902462092862E-8    1.2568344639602898E-8    4.679480771090737E-9     1.5312388998681537E-9    -3.347067268940961E-11   -1.0695823043246105E-9   -6.482458540720372E-10   -2.8538139424164254E-8   -1.6322838473030405E-8   -1.646246859189007E-9
4.8E-5                    3.039513803254803E-8     2.4065150946347788E-8    1.3885427752715232E-8    5.860376062214874E-9     1.9928265618198946E-9    4.050215580409433E-10    -1.0238854439622173E-9   -7.353277651174481E-10   -2.718350038310138E-8    -1.7562278702087407E-8   -2.166463775708737E-9
4.85E-5                   2.698785160577274E-8     2.414902131052601E-8     1.490664934467947E-8     7.018848133342076E-9     2.4581147060623523E-9    9.123850772382523E-10    -9.250904419827973E-10   -8.108669016945638E-10   -2.471758949370903E-8    -1.836374232001281E-8    -2.6943644463381032E-9