% Model:              Untitled.mph
% Version:            COMSOL 6.0.0.405
% Date:               Jul 17 2025, 06:09
% Dimension:          1
% Nodes:              401
% Expressions:        11
% Description:        Point graph
% Time (s)                Displacement field, Y component Displacement field, Y component Displacement field, Y component Displacement field, Y component Displacement field, Y component Displacement field, Y component Displacement field, Y component Displacement field, Y component Displacement field, Y component Displacement field, Y component Displacement field, Y component
0                         -4.355343765852601E-39   3.050688193493987E-38    1.1342612499805459E-35   9.671884014927077E-36    4.208616735820151E-34    -1.0851817653797162E-33  5.0099010771549715E-33   1.616233296109076E-32    4.528241781677801E-34    -4.010506788118526E-32   -7.0225402062562364E-34
5.0E-7                    1.157908094273735E-30    1.737009638815542E-30    -1.6130927559499774E-27  -1.3465321296638932E-27  -2.8320265452141515E-26  3.6181497893796176E-24   -1.1273484416421015E-24  -2.199887609520299E-24   -6.051613402192326E-26   7.06762099809679E-24     1.0336581943871325E-25
1.0E-6                    -4.105406740688327E-30   -4.023639553864073E-29   1.7058686613097896E-27   9.398390421182936E-28    -4.607246676321299E-25   -2.916036434373038E-23   3.778675081781533E-24    1.6818889644840544E-25   1.9776287718366055E-25   -1.8759549840847557E-23  -1.3213324778494747E-25
1.5E-6                    -4.446732221078898E-30   1.359143293510004E-28    1.6810183065249795E-27   3.1431464227450962E-27   2.0610891864867604E-24   3.674123737831083E-22    7.783222626416533E-24    3.958978242473623E-24    -1.3525428640608721E-24  8.231513566245465E-24    -1.0093281312224782E-25
2.0E-6                    4.9734211427643343E-29   -2.302902513028607E-28   -1.202776178445652E-26   -1.0811552358305358E-26  -6.5329478581691735E-24  -6.417609686762772E-22   -3.7321910745618146E-23  -8.135661384258929E-24   -3.966443764662574E-24   1.813751950982232E-22    -3.6718678778987827E-25
2.4999999999999998E-6     1.4068167356810184E-28   1.0069846391610377E-27   2.424465196582727E-26    1.267120728307557E-26    1.269288678689382E-23    -1.0886700295220666E-21  1.568777267130655E-24    2.0688108849635407E-22   1.1750263134171496E-23   -3.607806278344445E-22   1.236446753631071E-25
3.0E-6                    5.629092330196237E-28    -1.947925333099651E-27   -3.091394264677949E-26   -4.4591927658613214E-27  5.158137668162085E-23    6.20267726926323E-22     8.420040074742719E-24    -1.2363060092559186E-23  3.6461253888588575E-23   -1.064264650224984E-21   -6.533737723012013E-24
3.5E-6                    -1.203447443565482E-27   -7.497533268986794E-28   1.4140924746669546E-25   2.624722306198538E-25    -2.0424249189080003E-22  -2.826203109740856E-21   -1.6330724436510562E-22  -1.3192298061653856E-21  5.1545686112803215E-23   -1.8755680352870871E-22  -3.692464541630063E-23
4.0E-6                    -2.9443949639812676E-26  -1.99930652102165E-27    -1.258352832842414E-25   6.27854957972191E-25     -2.7004556845455904E-22  3.0089950763035165E-20   1.4874574176837316E-21   -9.490466006098177E-22   1.2485265699690943E-22   1.461726032277212E-20    -2.497635890172097E-23
4.5E-6                    -1.430683485985246E-26   2.2948775320768106E-26   -8.651936792378026E-25   -1.1717144414832586E-24  1.7275028220320015E-21   1.1934608207502168E-19   8.106212066758485E-21    3.691452421988624E-21    3.979772098623608E-22    2.785885055509721E-21    7.243230669414078E-23
4.9999999999999996E-6     3.019995600803205E-25    -1.0417764178832829E-26  1.535392479804882E-24    -5.508915607368778E-24   2.555578829076079E-22    -2.601436472959988E-19   -8.176911366374549E-21   1.6873770167007364E-20   -1.0598992183322394E-21  -1.0232131451435927E-19  -2.2782129578591647E-22
5.5E-6                    6.847253604093217E-25    -2.112918347727966E-25   1.0027763334384892E-23   2.90650158558368E-23     -1.158596390845415E-20   -1.0283946563295265E-18  -6.89065156591711E-20    4.593857247832893E-20    -1.788012781965176E-21   -9.348777603389795E-20   -1.6837976741832023E-21
6.0E-6                    -2.785862258786631E-25   1.0381155107392119E-24   -1.8726594792255723E-24  1.3186709339432335E-22   1.0948560667207653E-20   1.5614842078043848E-18   3.534147861364865E-20    -1.9016884715039774E-20  3.026277564312478E-20    3.828399642851757E-19    -4.0046863996909E-21
6.5E-6                    -2.3379094283747803E-24  4.0755646126097974E-24   -1.3803523331543018E-23  -2.2773384447528825E-23  8.051139488087513E-20    6.109133058386908E-18    4.764990249272482E-19    -1.536488808316308E-19   9.902951371622218E-20    5.667473245730913E-19    -1.2687668198912926E-20
7.0E-6                    1.9951605856352725E-25   -1.9482786676895775E-25  1.4827978812131541E-22   -2.262715399094031E-22   -7.99901629968865E-20    -5.626034752598836E-18   2.7429140416832093E-19   4.747636063605347E-19    4.0645463553215136E-20   -1.6944066710937153E-18  -5.447014961944824E-20
7.499999999999999E-6      1.5781812713684102E-23   -1.369328856235464E-23   3.465772179467669E-22    3.152772814870175E-21    -4.026240265439956E-19   -2.5417528147750172E-17  -1.6023649492881686E-18  1.9794461570583246E-18   -8.42430382270783E-20    -4.050457790832192E-18   -1.631874779421565E-19
8.0E-6                    5.798672169036413E-23    2.3886018328531726E-23   3.4340954717233947E-22   1.1761611813307965E-20   7.237773981580588E-19    1.6036326058777346E-17   -1.2373107624612258E-18  1.8341177724459153E-18   8.513090543271325E-19    1.7879556943667153E-18   -3.678667385976438E-19
8.5E-6                    1.311527308921025E-22    1.8700271607287641E-22   2.1683343549873112E-21   1.4466155485243334E-20   3.2113397405022756E-18   9.289847409504522E-17    8.049749060354828E-18    2.371950955229961E-18    3.8261859038326776E-18   4.64719426278303E-18     -9.384575046668784E-19
9.0E-6                    1.4014913552774032E-22   2.803186970699361E-22    1.0155343248862383E-20   3.862997503637427E-20    5.611682730700433E-19    -3.7275137395207396E-18  1.739020177904002E-17    1.891220217470873E-17    7.14151242168176E-18     -3.1948692976233216E-17  -3.1261505993354478E-18
9.499999999999999E-6      6.640677623614622E-23    2.211953564943041E-22    2.709761056035966E-20    2.563077479084503E-19    -5.4608709253896044E-18  -2.0836150445562363E-16  2.8859649928385898E-18   5.502548521366712E-17    1.2939401313713182E-17   -9.029257111919937E-17   -1.0582767294100454E-17
9.999999999999999E-6      1.1403586208043613E-21   1.8246733075035964E-21   6.174581068706124E-20    8.748933153397147E-19    1.8157047687329958E-17   5.365571778946267E-17    -1.1818553715409673E-17  8.883665718539442E-17    4.4560831448378434E-17   -9.0949510535431E-17     -3.198731849900141E-17
1.05E-5                   6.381646371504499E-21    7.608431727759945E-21    1.6960322226813418E-19   2.045984439695693E-18    9.570020822002003E-17    8.001033827923112E-16    7.951610237479375E-17    2.0135789738242666E-16   1.4361709231307284E-16   -1.5919115762257175E-16  -8.487542904842094E-17
1.1E-5                    1.518406208047783E-20    1.6561989030358994E-20   5.432886991072772E-19    5.486505528994875E-18    1.7499479419386152E-16   9.977450905324067E-16    3.216772623644043E-16    6.9515317593607545E-16   3.3997053684510393E-16   -8.179290377345581E-16   -2.08563308790465E-16
1.15E-5                   1.8086192460037594E-20   3.9635569414530283E-20   1.6631081372847721E-18   1.810724410759188E-17    2.7394738262970197E-16   9.608748457105253E-16    5.958299166312631E-16    1.815450069581607E-15    7.299473867476007E-16    -2.5389238413703985E-15  -5.274202461921775E-16
1.2E-5                    2.6936396100068003E-20   1.3294721462212208E-19   4.514612591359115E-18    5.383739755452582E-17    8.359287330341149E-16    4.046378462477592E-15    1.0563637346391906E-15   3.635569356385646E-15    1.8215205232713777E-15   -5.27474184107133E-15    -1.418002965941947E-15
1.2499999999999999E-5     1.445518062852559E-19    3.8339820015896866E-19   1.1209955109688531E-17   1.3924728826529594E-16   2.7165327056349024E-15   1.3295594762073015E-14   2.7339910192698918E-15   7.486778203892968E-15    4.922944378875411E-15    -1.0074258804977297E-14  -3.75886548162303E-15
1.3E-5                    5.300345893425711E-19    9.339139175812836E-19    2.7821486853086047E-17   3.5349819629018976E-16   6.798491120991849E-15    2.9309316994250315E-14   7.188712592758346E-15    1.8232795527598034E-14   1.2228816506180795E-14   -2.3402621247478762E-14  -9.305422057306833E-15
1.35E-5                   1.134436450184877E-18    2.381239110366148E-18    7.247556410666226E-17    9.233452932589277E-16    1.494897627432489E-14    5.841214662302212E-14    1.6218840348490204E-14   4.447299588904152E-14    2.7606950235371903E-14   -5.935327774029902E-14   -2.1807818067674666E-14
1.4E-5                    1.7162543157240109E-18   6.5497516956853594E-18   1.8824878735557887E-16   2.3563771969409417E-15   3.3455304124332036E-14   1.2459688562243036E-13   3.4941515094604086E-14   9.725720145724801E-14    6.06652368308766E-14     -1.3553969471686137E-13  -5.0068969507493056E-14
1.45E-5                   3.299277466501542E-18    1.7546863458816665E-17   4.601010746571895E-16    5.709362515579291E-15    7.65470965696716E-14     2.7118855601821025E-13   7.756322150431825E-14    1.9566554067789068E-13   1.34962705808088E-13     -2.774220859761734E-13   -1.136018599258908E-13
1.4999999999999999E-5     1.0703115297916669E-17   4.483979755588132E-17    1.0661553532954737E-15   1.3357756907184922E-14   1.68742420057559E-13     5.576175244836377E-13    1.6994551531003236E-13   3.905315181110243E-13    2.9781536679342173E-13   -5.564237402886621E-13   -2.51019512522221E-13
1.55E-5                   3.169497874574225E-17    1.1168853533001531E-16   2.4408264367659157E-15   3.0587728313860943E-14   3.5340112611297336E-13   1.0766192739919929E-12   3.52012567284299E-13     8.007130471013392E-13    6.318819430283464E-13    -1.1375239351861628E-12  -5.336389976676554E-13
1.6E-5                    6.951869727978643E-17    2.731128545733221E-16    5.593878223975499E-15    6.806938472654985E-14    7.146306196680095E-13    2.0015730384441363E-12   6.984889806560477E-13    1.6201086901549892E-12   1.2758809570942492E-12   -2.259632272524763E-12   -1.0887531215713656E-12
1.6499999999999998E-5     1.2345919153446163E-16   6.577877422608119E-16    1.2549773544475925E-14   1.4614558425921656E-13   1.4000335242584684E-12   3.6266060338159267E-12   1.35999212013027E-12     3.0721879812340755E-12   2.4577609545361874E-12   -4.17819121185959E-12    -2.130078174986268E-12
1.7E-5                    2.31020246461401E-16     1.5637821900092894E-15   2.7074968317514413E-14   3.033797944993051E-13    2.624629503162322E-12    6.334029366526735E-12    2.5788443110470645E-12   5.42885677092906E-12     4.529084040509135E-12    -7.265197986598109E-12   -3.984352332646756E-12
1.75E-5                   5.455203162422407E-16    3.633964973068033E-15    5.640251214961782E-14    6.096432220690475E-13    4.6718389409666814E-12   1.0454077902479204E-11   4.645730525573478E-12    9.245881849841998E-12    7.984189352417604E-12    -1.2238182260966183E-11  -7.112091959079997E-12
1.8E-5                    1.3380663506057082E-15   8.168145201179237E-15    1.1472379852610363E-13   1.1785766990946917E-12   7.920011346617681E-12    1.6025479223185026E-11   7.874887789651497E-12    1.5527081648189015E-11   1.3425041917601175E-11   -1.9924228856203813E-11  -1.2111825040633878E-11
1.85E-5                   2.842416947974829E-15    1.7804994512635807E-14   2.281970243148167E-13    2.1761887483840303E-12   1.2808984539513629E-11   2.2489936222479522E-11   1.2676012167965368E-11   2.5024316524930062E-11   2.1343136539911722E-11   -3.0136911002446134E-11  -1.9590736561498412E-11
1.8999999999999998E-5     5.238518456788585E-15    3.791335842915683E-14    4.4030510994568184E-13   3.83032875292744E-12     1.952756211505799E-11    2.849027759301596E-11    1.9477694602250856E-11   3.659081599959431E-11    3.15771484364019E-11     -4.0680499354297224E-11  -2.9688319166404275E-11
1.95E-5                   9.383730858103923E-15    7.865113730394562E-14    8.171655476260903E-13    6.427779399415515E-12    2.740387669534074E-11    3.217447168486132E-11    2.8048374383392896E-11   4.6414584253486566E-11   4.268566140672591E-11    -4.8324929393012014E-11  -4.133282947897523E-11
1.9999999999999998E-5     1.8183664421560645E-14   1.5740364817235693E-13   1.4538723949598366E-12   1.0232630157628678E-11   3.457275670122516E-11    3.219588758588895E-11    3.650747364919278E-11    5.028502767468648E-11    5.207580983788112E-11    -5.158589959192071E-11   -5.200521939489014E-11
2.05E-5                   3.7068152595441146E-14   3.024826193445291E-13    2.4809010838424697E-12   1.5259076215825688E-11   3.8708294527888306E-11   2.8673198064595914E-11   4.1559027518716526E-11   4.768289552999866E-11    5.7501488175833164E-11   -5.209977474068591E-11   -5.887673662689243E-11
2.1E-5                    7.264061060857009E-14    5.595348633737757E-13    4.057303658342206E-12    2.0986227346299787E-11   3.86088441531793E-11     2.2871486567262414E-11   4.0965738238337415E-11   4.284216542149998E-11    5.889546421072984E-11    -5.2155040399635114E-11  -6.075907436318505E-11
2.1499999999999997E-5     1.3253651366941807E-13   9.973684498453087E-13    6.314366349655069E-12    2.6309108419020692E-11   3.499298827872484E-11    1.5631618374357232E-11   3.624886073823014E-11    4.0113034913113444E-11   5.81530340763935E-11     -5.094392401300032E-11   -5.869825218827037E-11
2.2E-5                    2.316148419443E-13       1.703841698658199E-12    9.21118064773878E-12     2.9962826508280736E-11   2.9216127982520243E-11   6.43801022988397E-12     3.1744438660862096E-11   3.8198416157325686E-11   5.615367578766609E-11    -4.459918392294902E-11   -5.403036397548705E-11
2.2499999999999998E-5     4.031439116969777E-13    2.7680981538954856E-12   1.2342929326449366E-11   3.120761314102734E-11    2.1156728758798583E-11   -5.4858492609353035E-12  2.960828785680609E-11    3.068856541350219E-11    5.017042423113649E-11    -3.036462934371996E-11   -4.6022027446631597E-11
2.3E-5                    7.040944904010021E-13    4.2550262864818806E-12   1.4888855840175466E-11   3.014276447180347E-11    9.063088823397204E-12    -1.9622104843117038E-11  2.6214073013538237E-11   1.3073375938965312E-11   3.559467755082392E-11    -9.223765818685169E-12   -3.226571959245061E-11
2.35E-5                   1.205599844737797E-12    6.158148371320269E-12    1.590830646799036E-11    2.7256723497179867E-11   -8.137176469737278E-12   -3.490979411563618E-11   1.52133840187691E-11     -1.2519692041310709E-11  1.0775273572381868E-11   1.6822518331603223E-11   -1.1338660591239642E-11
2.4E-5                    1.9709709524558647E-12   8.288810665127526E-12    1.4901850694676243E-11   2.2660761666325897E-11   -2.916164206040198E-11   -5.232385915029694E-11   -5.559328483445507E-12   -4.137023680775669E-11   -2.13753608255328E-11    4.8871063482922157E-11   1.6253570050609477E-11
2.45E-5                   3.0228989004671585E-12   1.0131985818960536E-11   1.2158346899314418E-11   1.5890113634029187E-11   -5.203724904888731E-11   -7.527834640723994E-11   -3.2119850401352426E-11  -7.373348308408375E-11   -5.818179957896686E-11   9.052295742870415E-11    5.035914802778467E-11
2.4999999999999998E-5     4.2934778687783465E-12   1.0875963539785746E-11   8.46505496839314E-12     6.4172619908029E-12      -7.72762875795379E-11    -1.0610708759480446E-10  -6.05050084352925E-11    -1.1542742641167756E-10  -1.0248411119809902E-10  1.4348194889035396E-10   9.300118009457786E-11
2.55E-5                   5.5785729740464524E-12   9.818176614421382E-12    4.408336763013595E-12    -6.061212132301299E-12   -1.082395055974467E-10   -1.4280953514038136E-10  -9.314500075715417E-11   -1.7031127030551234E-10  -1.6022480959967E-10     2.0575931989994784E-10   1.4649252630286926E-10
2.6E-5                    6.571426748500493E-12    6.929973146239687E-12    -1.013350244886859E-14   -2.2245579630355388E-11  -1.4777368158271394E-10  -1.8075849477036176E-10  -1.3628228763181911E-10  -2.347903556367799E-10   -2.3208293203737019E-10  2.745112771068024E-10    2.1049271951038252E-10
2.65E-5                   7.014096823471076E-12    2.951090841271606E-12    -5.131354920445649E-12   -4.38706111537171E-11    -1.950516050788731E-10   -2.1713835832644182E-10  -1.9117142217844734E-10  -3.0156066029117687E-10  -3.1026173116681257E-10  3.4841905027420177E-10   2.824946293956814E-10
2.7E-5                    6.837639404989677E-12    -1.2564292554963982E-12  -1.1305104601067921E-11  -7.289928084361855E-11   -2.460858193121433E-10   -2.518408285594112E-10   -2.508838336213266E-10   -3.669654998587545E-10   -3.8593788691495383E-10  4.2591455469431696E-10   3.6061829621946776E-10
2.7499999999999998E-5     6.0873954700823805E-12   -5.412934499001776E-12   -1.9017136601189486E-11  -1.0961086331852647E-10  -2.964564773439777E-10   -2.842909399467277E-10   -3.072121917653909E-10   -4.321234109744537E-10   -4.583726120683292E-10   5.027518572379721E-10    4.4365782440134714E-10
2.8E-5                    4.6863913193347795E-12   -9.701517972552858E-12   -2.911701470902326E-11   -1.5184226533100886E-10  -3.4260289470850947E-10  -3.1200837487773985E-10  -3.581040801218269E-10   -4.976265278525221E-10   -5.334867893185837E-10   5.735162053002706E-10    5.279825786469427E-10
2.8499999999999998E-5     2.4176052681418095E-12   -1.408748117144637E-11   -4.2393303722092365E-11  -1.9661778409453576E-10  -3.813059086143628E-10   -3.3288527688068587E-10  -4.0575144870198763E-10  -5.599260511613482E-10   -6.132987435949067E-10   6.349877601096747E-10    6.067579377067723E-10
2.9E-5                    -6.977240494698854E-13   -1.829411483939091E-11   -5.870397190983368E-11   -2.4239406779732806E-10  -4.0989869886747983E-10  -3.460914976303007E-10   -4.4944453910302045E-10  -6.130592086502911E-10   -6.896187636072529E-10   6.858616865793003E-10    6.739596996062435E-10
2.95E-5                   -4.143453200435762E-12   -2.2732266777464132E-11  -7.683244711070636E-11   -2.892711123545547E-10   -4.2750052042634317E-10  -3.4927694745756833E-10  -4.842864959922788E-10   -6.51206555076598E-10    -7.493548324889023E-10   7.228406192407979E-10    7.279324767037828E-10
2.9999999999999997E-5     -7.45015384213927E-12    -2.8970892733318004E-11  -9.552942551252668E-11   -3.3705209771046145E-10  -4.344637301153604E-10   -3.3750676770538825E-10  -5.0655466429249E-10     -6.686829304341244E-10   -7.836727354888542E-10   7.388405269189352E-10    7.69034678141208E-10
3.05E-5                   -1.1189891464249922E-11  -3.8535876676395824E-11  -1.1456494173803694E-10  -3.8346349424000496E-10  -4.2927328465799E-10     -3.0713935737333065E-10  -5.159079076004722E-10   -6.600449511127711E-10   -7.899106787249446E-10   7.259381827501134E-10    7.939672171490033E-10
3.1E-5                    -1.7024217481944174E-11  -5.107303226025249E-11   -1.3440722058296565E-10  -4.241594244674025E-10   -4.0641495479042593E-10  -2.5842758625451225E-10  -5.105413786820724E-10   -6.219633587845191E-10   -7.664276194293178E-10   6.786064667229976E-10    7.937034898258826E-10
3.15E-5                   -2.612153523178365E-11   -6.41177375990774E-11    -1.548398547501256E-10   -4.5395589023388443E-10  -3.580940121738943E-10   -1.9142190924964402E-10  -4.832860940878063E-10   -5.528275260259443E-10   -7.090967458573084E-10   5.926653064904978E-10    7.567040271024921E-10
3.2E-5                    -3.741748388524772E-11   -7.49913612526623E-11    -1.7417872670680731E-10  -4.681058251411186E-10   -2.779220495479722E-10   -1.013707167494547E-10   -4.250009776907667E-10   -4.4803826947160125E-10  -6.129587499369532E-10   4.6221569279461245E-10   6.729108926641003E-10
3.25E-5                   -4.8019585079487177E-11  -8.287041530121731E-11   -1.8997874790752834E-10  -4.6314541600283E-10     -1.629000526177778E-10   1.7561941648525066E-11   -3.30175881543826E-10    -2.972700290284877E-10   -4.737069390356904E-10   2.800190559147075E-10    5.352601935465025E-10
3.2999999999999996E-5     -5.58709812235385E-11    -8.895638456053628E-11   -2.0034375591160714E-10  -4.3696068272394917E-10  -1.2850758911898272E-11  1.6429811443024244E-10   -1.976065975280491E-10   -8.987113236022152E-11   -2.851384960833496E-10   4.159243936260117E-11    3.39943210371765E-10
3.35E-5                   -6.185412895255558E-11   -9.475831772007386E-11   -2.0438871664035695E-10  -3.875381110417141E-10   1.7113742584028938E-10   3.307767482123042E-10    -2.7970802772816195E-11  1.7656131542633558E-10   -3.729322045553151E-11   -2.522619975616226E-10   8.667078920522657E-11
3.4E-5                    -6.86849722565245E-11    -1.0017806222682964E-10  -2.0143128868217062E-10  -3.1098704296076523E-10  3.8802043202564726E-10   5.109543947210718E-10    1.7648040122862777E-10   4.950328383714293E-10    2.786194997464244E-10    -5.974719656658085E-10   -2.2249125021228415E-10
3.45E-5                   -7.752956617238939E-11   -1.0296834978195675E-10  -1.8973144976688057E-10  -2.0091879519784622E-10  6.371937085815323E-10    7.059076029134776E-10    4.1154613552105217E-10   8.564181281761422E-10    6.616737005260219E-10    -9.898474561297244E-10   -5.860754179527601E-10
3.5E-5                    -8.60883789031976E-11    -9.994538303157572E-11   -1.6599767941004667E-10  -5.0490672764204876E-11  9.172714170650444E-10    9.17172305397522E-10     6.738772264655172E-10    1.2549212159266129E-9    1.0992404908059818E-9    -1.4249091129863877E-9   -1.0045757581279116E-9
3.5499999999999996E-5     -9.034655185981613E-11   -8.908387080948278E-11   -1.2638297216540388E-10  1.443162202580278E-10    1.2236466189935005E-9    1.1376333692488005E-9    9.636715076869287E-10    1.6850697371401708E-9    1.5753159533442547E-9    -1.895072670729474E-9    -1.4772397023852806E-9
3.6E-5                    -8.798887081637375E-11   -7.083316282640536E-11   -6.853614467893226E-11   3.828596960596988E-10    1.5467099296485275E-9    1.3528028157237675E-9    1.281074687031839E-9     2.1359160825303886E-9    2.0798124135855577E-9    -2.3881165418915504E-9   -1.9965641617887838E-9
3.65E-5                   -7.96726975838535E-11    -4.7347465121728054E-11  6.974596601453766E-12    6.604522600194345E-10    1.871973111047016E-9     1.5503978688611218E-9    1.6187411678228951E-9    2.5909524804032703E-9    2.60686180121635E-9      -2.8880133220780553E-9   -2.545930787233207E-9
3.7E-5                    -6.704063271716387E-11   -2.0083033209833904E-11  9.755303876181476E-11    9.703798914535611E-10    2.181498469915209E-9     1.725004448122414E-9     1.959695306693008E-9     3.0328928124353216E-9    3.1432889974762557E-9    -3.3756281394778727E-9   -3.102542818346396E-9
3.75E-5                   -5.013615782478853E-11   1.2031395018825902E-11   2.0139715217174847E-10   1.3058104265811123E-9    2.455841636334862E-9     1.8722370028895144E-9    2.2832306619163763E-9    3.4457820242828583E-9    3.661703122595072E-9     -3.827999250139779E-9    -3.642209508419302E-9
3.7999999999999995E-5     -2.7229673940819898E-11  5.199550686025423E-11    3.193758187882497E-10    1.6602552869264553E-9    2.6764907276421145E-9    1.9807472101129685E-9    2.5719016434481847E-9    3.8115381616108395E-9    4.1282001660411355E-9    -4.218111973389111E-9    -4.141198751910631E-9
3.85E-5                   3.1160617175748707E-12   1.0229230592557828E-10   4.533870228484965E-10    2.02560153439275E-9      2.8278717578212254E-9    2.032043651060292E-9     2.812848282830332E-9     4.10570064462696E-9      4.516359707156794E-9     -4.51671315761477E-9     -4.574395604926996E-9
3.9E-5                    4.0489742829547196E-11   1.6302690893525437E-10   6.023587558794657E-10    2.3886887741580596E-9    2.8967339602220554E-9    2.0079129033342878E-9    2.9935469443438743E-9    4.297581876421159E-9     4.810127459045137E-9     -4.694758488594235E-9    -4.913222014888937E-9
3.95E-5                   8.334791575084492E-11    2.3217062881834634E-10   7.602250746892311E-10    2.729926197814261E-9     2.868755063256416E-9     1.8974570296754536E-9    3.096275739329345E-9     4.354673545413391E-9     4.991184695820983E-9     -4.724567931524193E-9    -5.126304692862017E-9
3.9999999999999996E-5     1.3086377523297006E-10   3.069982618841884E-10    9.184647262244828E-10    3.0263185223042667E-9    2.726058428059702E-9     1.697699842983934E-9     3.096267253688793E-9     4.247531042435753E-9     5.026011401776443E-9     -4.580020614888129E-9    -5.181941383060003E-9
4.0499999999999995E-5     1.836336869189135E-10    3.8490733608529145E-10   1.0705583043196988E-9    3.2562134590939953E-9    2.4492292594503214E-9    1.408682056462806E-9     2.9669006586934428E-9    3.952190699374541E-9     4.869193184726447E-9     -4.237065384071408E-9    -5.049557834526883E-9
4.1E-5                    2.4258833631490043E-10   4.6322129062340615E-10   1.213318201411123E-9     3.4005002495704353E-9    2.022449597681895E-9     1.0286599176229618E-9    2.689179140139138E-9     3.450025228179025E-9     4.480673594670644E-9     -3.674589767089022E-9    -4.699848641445346E-9
4.15E-5                   3.0739876236534483E-10   5.38936662889277E-10     1.3435809866657982E-9    3.4391548698982452E-9    1.4369627645384518E-9    5.5421375766585E-10      2.256647716456055E-9     2.7269603824255627E-9    3.839111624235754E-9     -2.875420601620889E-9    -4.106076034508012E-9
4.2E-5                    3.7572489439353197E-10   6.088407703780926E-10    1.453807111438179E-9     3.347913737968861E-9     6.907514398217205E-10    -1.5005828004103498E-11  1.6709940664835243E-9    1.7738488799316554E-9    2.9396338012344886E-9    -1.8284072491845571E-9   -3.2477965723413688E-9
4.2499999999999996E-5     4.434624481407404E-10    6.693596983275126E-10    1.5307954374658804E-9    3.0998497448831084E-9    -2.1292484383365287E-10  -6.718282685421375E-10   9.348081242182033E-10    5.881529542189913E-10    1.7826657900272497E-9    -5.319655233588227E-10   -2.114887883011712E-9
4.2999999999999995E-5     5.055195545678655E-10    7.159692227424616E-10    1.5582622005522372E-9    2.6711254947963464E-9    -1.2649897328922885E-9   -1.4016838228421476E-9   5.034555137514347E-11    -8.239826955431004E-10   3.6839273732476256E-10   1.0030793179629425E-9    -7.090190132492399E-10
4.35E-5                   5.568201944114787E-10    7.432079945857523E-10    1.5212003224487206E-9    2.0462841921817364E-9    -2.4483817101771826E-9   -2.1860911898338297E-9   -9.76339779320664E-10    -2.4458430891061782E-9   -1.2978551494872467E-9   2.7537136893832083E-9    9.57467022763268E-10
4.4E-5                    5.931775713935501E-10    7.45899481239598E-10     1.4096931197695902E-9    1.2198746483095608E-9    -3.736793999275122E-9    -3.004567086037313E-9    -2.1320695349680383E-9   -4.2487054336055864E-9   -3.196134200130363E-9    4.686836686628725E-9     2.8626544915556506E-9
4.45E-5                   6.114153837597752E-10    7.203786544452484E-10    1.2203243115701623E-9    1.9485280759231607E-10   -5.095311127181931E-9    -3.832794746282565E-9    -3.3947159036539243E-9   -6.191429985589025E-9    -5.287098673232809E-9    6.759703756700499E-9     4.974056022057504E-9
4.4999999999999996E-5     6.086200569979827E-10    6.641903862235872E-10    9.538950378851604E-10    -1.020036698372148E-9    -6.481585943093518E-9    -4.640496342816105E-9    -4.729973428464071E-9    -8.221162463926219E-9    -7.514430607462888E-9    8.917848150518184E-9     7.246060302407032E-9
4.5499999999999995E-5     5.814467989411652E-10    5.747105172159422E-10    6.104675003741799E-10    -2.4118745473197446E-9   -7.846151281427095E-9    -5.393267261617614E-9    -6.089509419510573E-9    -1.0274055517159888E-8   -9.8110076446903E-9      1.109360678489767E-8     9.61811346877924E-9
4.6E-5                    5.263890297095233E-10    4.485889494301626E-10    1.858848649357194E-10    -3.962584452790629E-9    -9.132269442508491E-9    -6.057489592643694E-9    -7.416009750166695E-9    -1.227551070367891E-8    -1.2103354985834236E-8   1.3207973863894904E-8    1.2015277268998385E-8
4.65E-5                   4.405632168804279E-10    2.8268109722258935E-10   -3.2637067303900927E-10  -5.644802000894015E-9    -1.0276976085076916E-8   -6.6033135057345416E-9   -8.652342772648572E-9    -1.4141704674387762E-8   -1.4311581483655798E-8   1.5174669769778744E-8    1.4350861142612731E-8
4.7E-5                    3.21809191826758E-10     7.521779963096025E-11    -9.290099173022902E-10   -7.416603578034911E-9    -1.1214197451633428E-8   -7.003111506494986E-9    -9.745609761594257E-9    -1.5784127339766867E-8   -1.6347692180808298E-8   1.690367261501706E-8     1.652966329916299E-8
4.7499999999999996E-5     1.6806795522519249E-10   -1.7375018455458637E-10  -1.6158074575392143E-9   -9.219182301853708E-9    -1.1878736894354038E-8   -7.2285311219952445E-9   -1.0643771229694943E-8   -1.7115138366449332E-8   -1.8117437708774095E-8   1.8303526734946236E-8    1.845085789369582E-8
4.8E-5                    -2.256416192319915E-11   -4.620149728434525E-10   -2.3713780218195264E-9   -1.0979920533978795E-8   -1.2208968562266554E-8   -7.250984935570871E-9    -1.1292240605185099E-8   -1.805018980120723E-8    -1.9525380746420855E-8   1.9283646742203606E-8    2.0010749225629317E-8
4.85E-5                   -2.503057627291383E-10   -7.844708372852907E-10   -3.1743635655616265E-9   -1.2618734794277024E-8   -1.2147847466313695E-8   -7.046353952622994E-9    -1.1635893437485517E-8   -1.8506126623202543E-8   -2.047750041013771E-8    1.97573254929382E-8      2.1106043771275883E-8