% Model:              analysis.mph
% Version:            COMSOL 6.0.0.405
% Date:               Jul 13 2023, 15:14
% Dimension:          1
% Nodes:              10001
% Expressions:        11
% Description:        Point graph
% Time (s)                Displacement field, Y component Displacement field, Y component Displacement field, Y component Displacement field, Y component Displacement field, Y component Displacement field, Y component Displacement field, Y component Displacement field, Y component Displacement field, Y component Displacement field, Y component Displacement field, Y component
0                         0                        0                        0                        0                        0                        0                        0                        0                        0                        0                        0
1.0E-6                    5.432640226147155E-53    1.909082151753172E-51    3.041250532188198E-50    3.510969182892205E-49    7.52375562191972E-48     1.294808529772295E-47    -1.723982685457569E-45   1.824751639603376E-45    1.2284283333138017E-44   2.8103709522093623E-44   1.6998366611965254E-44
2.0E-6                    -6.5026364555548846E-52  -2.579923280496726E-50   -5.026343187927622E-49   -4.0242986801803563E-48  -8.088282791871222E-47   -7.927178486496956E-47   2.7241640406401246E-44   1.1609794018734467E-44   -7.52472339663851E-44    -1.8300624399632002E-43  -3.013405197613953E-44
3.0E-6                    3.304485062378892E-51    8.834298591809664E-50    2.802851024027952E-48    1.2295215505566874E-47   2.107103928985207E-46    -2.1668164322166422E-45  -3.837839386111922E-43   -5.930701038434523E-43   -6.244000274608896E-43   -1.1349990964348838E-42  -1.8312632084374678E-42
4.0E-6                    -1.1916296637870443E-50  2.1648417654781066E-49   -3.1299230026047116E-48  1.4390596986765317E-47   3.877570897453174E-46    2.1126734049694905E-44   2.2618863848540027E-42   4.035106844432203E-42    6.831667477048951E-42    1.3767152515463844E-41   1.4172774056471522E-41
4.9999999999999996E-6     -3.9590468607019913E-50  -5.122834874700094E-48   -7.085016538740182E-47   -2.767690730291461E-46   -6.665221780098162E-45   -8.151330370513968E-44   -5.324124311684627E-42   -1.1381375876235728E-41  -2.583826401327801E-41   -5.577334723643021E-41   -4.4171336498912895E-41
6.0E-6                    5.871826307478944E-49    2.6748259720173074E-47   4.530539878403789E-46    1.2239744886017346E-45   3.637531934194795E-44    8.667925135137475E-44    -5.3930470278823245E-42  4.4834070821408856E-42   3.1775544751088147E-41   8.530883743315801E-41    2.00985680288696E-41
7.0E-6                    -2.026670739020209E-48   -4.701693581053708E-47   -9.028188154617058E-46   -3.1572101952366107E-45  -1.018287329997869E-43   4.1695785001401955E-43   5.659470791696875E-41    6.081166119630379E-41    9.095598525929835E-41    1.6256981122030336E-40   2.8555382122908446E-40
8.0E-6                    7.138634157004442E-49    -9.094813564285002E-47   -1.4546784042929E-45     3.9601930317634415E-45   4.2947932433468634E-44   -1.382196949049224E-42   -7.294254522675764E-41   -1.5695297255589438E-40  -3.875753181488674E-40   -1.000074973227539E-39   -7.3315431091373835E-40
9.0E-6                    1.2614427978047772E-47   5.174373200714371E-46    1.0071339708767819E-44   8.619552303430952E-45    6.512166884693926E-43    -5.7484249249428255E-43  -2.166791243357434E-40   4.4386501520446786E-41   3.055918749232069E-40    1.3293944194270191E-39   -3.3783714353207185E-40
9.999999999999999E-6      -2.739449197467208E-47   -4.306680709169301E-46   -1.0584668460238147E-44  -6.000351877651049E-44   -1.799434899297638E-42   8.238361090019974E-42    6.1409891943186436E-40   4.967080770750601E-40    1.0727618837115369E-39   2.6869589501964363E-39   3.89683390835807E-39
1.1E-5                    -1.3749783544362114E-47  -1.808417533472571E-45   -3.8860000382113045E-44  1.143779408811078E-43    -2.3292650893119156E-44  -2.7253631575456042E-42  4.438947285894087E-40    -1.0837136904533503E-39  -2.5802161167780355E-39  -1.0999911510631595E-38  -2.489113808764185E-39
1.2E-5                    1.2054526392635063E-46   4.23749934773441E-45     1.1360790325338863E-43   1.076427105163117E-43    8.480351419415096E-42    -4.106885476283286E-41   -2.701503990976673E-39   4.120404411862532E-40    -1.8225724972187899E-40  3.5900066198130986E-39   -1.285668995013991E-38
1.3E-5                    -1.3157790644355651E-46  2.0934833386472432E-45   3.633946608575723E-44    -8.620500359383203E-43   -1.230827437877081E-41   3.4663622415710066E-41   -3.783479453016874E-40   3.8670549312002815E-39   7.334793613492159E-39    4.239209663618779E-38    1.5811980175794654E-38
1.4E-5                    -1.327669074935714E-46   -1.8876251953926033E-44  -5.797813249820526E-43   8.206644629965005E-43    -1.6322933366977476E-41  1.6846502117089031E-40   8.38774170348861E-39     -9.057094256726639E-39   -5.939547486547607E-39   -5.543464896883642E-38   3.6224965210305553E-38
1.4999999999999999E-5     7.867029517000889E-46    1.0191463894002521E-44   4.674831110426713E-43    2.951348209388395E-42    6.590985140142392E-41    -2.3335758291803892E-40  -8.896231511386486E-40   -5.939848067533529E-39   -9.979472906746401E-39   -1.1516270299294874E-37  -5.583058002409168E-38
1.6E-5                    -1.1399733435948429E-45  7.001565166006639E-44    2.1277659709114123E-42   -6.557487770340771E-42   -1.8991046714088281E-41  -5.0794445506603884E-40  -1.876088940457525E-38   4.207359365049535E-38    7.415081810191439E-39    2.51207095953539E-37     -1.1190680057421347E-37
1.7E-5                    -2.525489586778204E-45   -8.20914661480777E-44    -3.765233745396859E-42   -5.746335287082997E-42   -2.1458714562357662E-40  1.1481330633519866E-39   7.939805539857728E-39    -4.92377793628624E-39    4.6713537978433985E-39   2.7898827087658297E-37   1.5588258653542282E-37
1.8E-5                    8.319345151175185E-45    -2.7575968019096978E-43  -6.223998012068342E-42   2.5874612692751535E-41   2.6936240413778396E-40   9.205958633336056E-40    2.566156983652978E-38    -1.2258360608938304E-37  8.920831034764929E-38    -7.531910455786655E-37   4.090215720743786E-37
1.8999999999999998E-5     6.372685230631635E-45    3.740248474824668E-43    1.8760460794741374E-41   3.385191756187282E-42    5.126102178278943E-40    -4.6830934293226984E-39  -5.200498318607722E-38   6.324798730415818E-38    -3.7151402537515685E-38  -7.933672514201984E-37   -3.8262264672532286E-37
1.9999999999999998E-5     -3.359969930926301E-44   1.1671849991585948E-42   1.4870892374885412E-41   -6.415038486361631E-41   -1.2247261746918001E-39  3.588395308569851E-40    -7.105544377738656E-39   2.3022692788615888E-37   -6.944287713903588E-37   1.527574454325901E-36    -1.5598681518098283E-36
2.1E-5                    -1.5913139708883345E-44  -1.2862043593708539E-42  -7.668743655763749E-41   2.553099450533877E-41    -8.405659697029707E-40   1.7399991579756306E-38   2.7425515780142307E-37   -2.9026567475418164E-37  3.926675254219412E-37    2.7668492174117958E-36   7.994643649973903E-37
2.2E-5                    9.742471378178531E-44    -4.737975709689379E-42   -2.850865464387294E-41   5.412197811410548E-41    4.1042204864045713E-39   -1.0188026020767975E-38  9.016396687681386E-39    -1.573163960335876E-37   3.234211005338256E-36    -9.155856541570652E-37   5.498336890388051E-36
2.3E-5                    3.4687715102889626E-44   3.292985799603558E-42    2.8402130530839876E-40   -1.878504851152916E-40   6.597436521157347E-41    -6.154827527879444E-38   -1.0779324764743946E-36  1.1833261949097715E-36   -1.99778810639351E-36    -9.399714658380918E-36   -1.0714145046969294E-36
2.4E-5                    -2.08027735577304E-43    1.700832699794979E-41    4.686554877123482E-41    4.1004821092193085E-40   -1.202761270547297E-38   4.4822387590470363E-38   -5.301305739816329E-37   -6.0881102250388296E-37  -1.21667020641014E-35    -9.366236809467239E-36   -1.690644107581392E-35
2.4999999999999998E-5     1.364789755602013E-44    -5.495657499594375E-42   -9.967004794036979E-40   1.1035148574817344E-39   6.969047233832397E-39    2.0552868785677622E-37   3.140155462645959E-36    -4.3539037567588674E-36  6.57189343054878E-36     2.608087869093473E-35    -7.4831478929273075E-37
2.6E-5                    3.4253891984257844E-43   -5.291699301830907E-41   -1.3883444697914032E-40  -2.585243926611301E-39   3.438592365409253E-38    -1.2514604223432232E-37  3.47829844964073E-36     2.420334038093118E-36    4.0329139301732865E-35   5.663112304138687E-35    4.4228630006295795E-35
2.7E-5                    -7.16241690778662E-43    2.9797913353388955E-42   3.31248089749432E-39     -5.4907848310860086E-39  -3.798740221669602E-38   -6.321906766161498E-37   -6.630592408368292E-36   1.3459598889314077E-35   -1.3056881864015566E-35  -5.193340596468617E-35   8.389679526415801E-36
2.8E-5                    -8.313743309929197E-43   1.483589335801679E-40    9.064960564421513E-40    8.315553029812431E-39    -1.041691830913741E-37   2.3729273173152296E-37   -1.380545964867405E-35   -3.62865619850515E-36    -1.1946060679240338E-34  -2.0786003257953865E-34  -9.922281828274479E-35
2.9E-5                    4.3702309769704594E-42   1.1753216751774892E-41   -1.0095432693063951E-38  2.103573656106266E-38    1.4216559761854552E-37   1.778394612503542E-36    8.082408127329903E-36    -3.4093722286020575E-35  -1.62053967098019E-36    4.731219419135316E-35    -1.5416067472023426E-35
2.9999999999999997E-5     4.751306565221372E-42    -4.159120201289851E-40   -5.2309961988736004E-39  -1.6112070932773276E-38  3.4676341417799928E-37   -1.9510241907340083E-37  4.1132928059132834E-35   -3.3780609735247325E-36  3.061318566615703E-34    5.852623846172603E-34    2.1000894407523493E-34
3.1E-5                    -1.6269384612954015E-41  -5.920669954318428E-41   2.721887646477213E-38    -5.852397825713639E-38   -4.0953538530971986E-37  -4.637614834713639E-36   9.231873265429735E-36    6.921808304097683E-35    1.3623203157784514E-34   1.3805234669364468E-34   -3.4564739003729167E-35
3.2E-5                    -2.537683375118587E-41   1.2769572159416072E-39   2.2522575885291386E-38   1.7257614346603473E-38   -1.2157613239433708E-36  -8.626215437428576E-37   -9.468468411270559E-35   3.8961314255149747E-35   -6.342119371188654E-34   -1.3402782800097384E-33  -5.197914513352172E-34
3.2999999999999996E-5     4.1599972059079115E-41   4.185870639569123E-40    -6.389482506436278E-38   1.1166837609090942E-37   7.582575115670402E-37    1.1315018814594753E-35   -9.597732548854021E-35   -9.551110060654888E-35   -6.347192129749514E-34   -8.690923626733138E-34   2.5703190474731043E-34
3.4E-5                    1.0027726937822834E-40   -4.031495010332972E-39   -7.622956210655829E-38   -3.160587885437355E-38   3.993853732588536E-36    6.31384687365341E-36     1.4491442042979533E-34   -1.2799634068491453E-34  9.238784036099204E-34    2.5378666961305374E-33   1.591000899173191E-33
3.5E-5                    -7.072057408242695E-41   -2.998947571467608E-39   1.3275273816917086E-37   -1.4706692974607135E-37  3.1019489284467443E-37   -2.4973088573105907E-35  3.4257610236321224E-34   -5.724828179201087E-36   1.809035667729592E-33    2.8188644677329722E-33   -4.7937377721315166E-34
3.6E-5                    -3.1316419840599307E-40  1.1100952153897563E-38   2.2036509948378083E-37   2.5753918844092177E-37   -1.0675526993124887E-35  -2.7014637512031634E-35  -1.816643954483448E-35   1.7120091513973247E-34   -4.642401399719134E-34   -3.9114142451011224E-33  -4.764770596518884E-33
3.7E-5                    4.754593466798227E-41    1.5395048567128984E-38   -2.5108718482865205E-37  3.1167044770395733E-37   -9.008209344813026E-36   4.4521065058045323E-35   -7.521736351052146E-34   4.699204913737464E-34    -3.487257589291833E-33   -6.983636070892025E-33   -1.0484724962857945E-33
3.7999999999999995E-5     8.603331378438437E-40    -2.2260888080422854E-38  -5.97716521545405E-37    -1.2129328272510029E-36  1.9239845994244195E-35   8.805746042263978E-35    -6.7953522773429055E-34  4.617173462661645E-34    -1.9610217053048427E-33  4.428599561062934E-33    1.1421291841719094E-32
3.9E-5                    2.5315500921026206E-40   -5.669676222607969E-38   3.965902046337411E-37    -1.71311080002047E-36    3.820554773944721E-35    -4.4081917209862014E-35  8.487711141294826E-34    -1.0987001513802283E-33  3.924134602690963E-33    1.445712526976058E-32    9.637373924015931E-33
3.9999999999999996E-5     -2.2522738186320733E-39  1.9600903054989793E-38   1.58108916062804E-36     3.031325872980252E-36    -9.330656055660323E-36   -2.2106212593845676E-34  2.19500027440969E-33     -3.169857789979736E-33   6.668429661776893E-33    -1.5959337236893628E-33  -1.8957555845539705E-32
4.1E-5                    -1.9124299662100385E-39  1.536912758475432E-37    -1.9986410047272917E-37  7.395844872242109E-36    -9.182587284830157E-35   -6.462709523052149E-35   6.449364479740745E-34    -4.523717965893678E-34   6.106896480392804E-34    -2.5452425659856986E-32  -3.3381818640566197E-32
4.2E-5                    5.245586715206001E-39    5.911910381749506E-38    -3.77127052757157E-36    -2.5895681588001833E-36  -6.838732693330297E-35   4.0289186538195135E-34   -3.45472338068095E-33    8.16311466460193E-33     -9.78910925526163E-33    -9.105622261187814E-33   1.3601217897497286E-32
4.2999999999999995E-5     9.147201512909733E-39    -3.0481369909203095E-37  -1.8791856534187803E-36  -2.091391694611844E-35   1.1467859740249596E-34   4.398164216375719E-34    -4.8663275644910934E-33  9.667852088859922E-33    -1.2502001526349343E-32  3.683336817132444E-32    7.286021321080301E-32
4.4E-5                    -7.547184698792878E-39   -3.2946152270280963E-37  6.835527662615632E-36    -1.0704845479083073E-35  2.426511733750939E-34    -4.193333471382449E-34   1.1219428458569529E-33   -8.806259850302589E-33   1.081583087581297E-33    3.284073705037676E-32    3.07735464825631E-32
4.4999999999999996E-5     -3.1784588634631823E-38  4.119188273005311E-37    8.922737907302991E-36    3.8771411536740794E-35   4.167613194061511E-35    -1.1612905055013256E-33  9.896951170969546E-33    -2.911379361957821E-32   2.349071532979384E-32    -3.8961564111757245E-32  -1.0043706853566302E-31
4.6E-5                    -9.355658785626924E-39   9.038797759099051E-37    -6.184296780024432E-36   5.45903488377468E-35     -3.694050799712622E-34   -2.2642411323600525E-34  8.287916783089515E-33    -1.1011439751699656E-32  2.8199200885041216E-32   -6.95689300233567E-32    -1.2946723785680749E-31
4.7E-5                    7.381991276176388E-38    -2.5109581062120854E-37  -2.1530759388423666E-35  -3.7464426990409125E-35  -4.663279356222863E-34   1.831808795274689E-33    -8.575848024416492E-33   4.312165840077867E-32    -7.106723707409609E-33   1.6673652119785357E-32   5.166862133581223E-32
4.8E-5                    1.0030126148647054E-37   -1.813135216166583E-36   -8.64616634973469E-36    -1.4172963477616952E-34  5.314832938301682E-35    2.0052135971423537E-33   -2.228360500859269E-32   6.032762319290564E-32    -5.999954277189522E-32   1.0551578001378713E-31   2.3565143437256793E-31
4.9E-5                    -7.493583007502313E-38   -4.7698311878665125E-37  2.641423683731466E-35    -3.844500705552646E-35   7.818147300745066E-34    -1.2040563055935337E-33  -7.4533798648379E-33     -1.3369901117618703E-32  -6.119450980547148E-32   3.976493927048938E-32    1.2593375938321607E-31
4.9999999999999996E-5     -3.2736073436921957E-37  3.091253682901054E-36    4.056392941550844E-35    2.503810067017693E-34    9.180251972623696E-34    -4.3352590039198725E-33  2.793060140935557E-32    -1.0643897824037137E-31  2.9653540054556907E-32   -1.1250763385193157E-31  -2.142409480798779E-31
5.1E-5                    -1.964112533424188E-37   2.3502931198803252E-36   8.24623183974578E-36     2.804662553839425E-34    -1.4099150715627708E-35  -2.2424716940173688E-33  3.651604003330791E-32    -8.126966639005317E-32   1.3871604318534773E-31   -1.1840671488785132E-31  -3.588261501569845E-31
5.2E-5                    5.431658823558933E-37    -4.814172696437671E-36   -4.965970324317894E-35   -2.5824432125192495E-34  -1.6124328049870376E-33  4.434979921330615E-33    -8.145069772053965E-33   7.243801773371559E-32    1.1764081926740544E-31   6.467302906696459E-32    -5.644049653408266E-32
5.3E-5                    1.1056681171075296E-36   -7.217334103101982E-36   -9.077183446231348E-35   -7.710057125473379E-34   -2.3076821874474936E-33  7.841577618471789E-33    -5.758063497907584E-32   1.784894055208794E-31    -7.888466343139793E-32   1.8311522713944247E-31   3.9346054233229557E-31
5.4E-5                    6.339462301642449E-38    5.486010245127325E-36    -5.762554139443983E-35   -1.7598371752267981E-34  -1.7954167695329032E-34  1.642526164902469E-33    -3.862678029013899E-32   7.830280594242668E-32    -2.740905834361187E-31   3.9910373786409073E-32   4.538712054479876E-31
5.4999999999999995E-5     -2.4653100237625583E-36  1.8524279798819757E-35   1.0646866351237009E-34   1.3362914335706945E-33   4.151623001510436E-33    -9.691843563244193E-33   3.817303367602538E-32    -1.449849885538822E-31   -2.1000892843046374E-31  -1.9233962995134907E-31  -1.278353098697904E-32
5.6E-5                    -3.0758988258443783E-36  2.8055216419617587E-36   3.086248731214387E-34    1.5895813524483694E-33   5.539932338713938E-33    -1.3300707044633082E-32  7.66848553726949E-32     -2.3428367097111984E-31  1.4272786258963734E-31   -1.780976900089652E-31   -5.425284273132089E-31
5.6999999999999996E-5     1.8922324790137534E-36   -3.4891747416493154E-35  2.058274779505626E-34    -1.010951136847715E-33   -9.217450005237631E-34   -1.3211992396710893E-33  2.70533980562722E-32     -6.351694869979918E-32   4.632532898024165E-31    1.1052839067292407E-31   -5.462051685215268E-31
5.8E-5                    8.949684536659164E-36    -3.6475372965732835E-35  -4.0615729237661136E-34  -3.9642328833497966E-33  -1.06348579283307E-32    1.8092174781896846E-32   -4.454878715355821E-32   1.931245342423741E-31    3.6225727107758954E-31   3.0493880518800784E-31   3.2887132060332257E-32
5.9E-5                    6.201091645535382E-36    3.255528551725795E-35    -9.455933497699232E-34   -2.0961493077754654E-33  -9.981286334817751E-33   2.4373129611992713E-32   -6.522904191638913E-32   2.5204005024750346E-31   -1.7423960945079585E-31  9.647195303622323E-32    6.078752767516412E-31
5.9999999999999995E-5     -1.1758512065909692E-35  1.0001920563382305E-34   -3.2713288398033626E-34  5.0306246277355724E-33   6.515385726910766E-33    3.291775791861701E-33    -5.624564005674605E-32   5.72797860524667E-32     -6.702755983001706E-31   -3.1475532664743363E-31  5.829558488767638E-31
6.1E-5                    -2.59107578031943E-35    4.299852369751963E-35    1.4261853605731321E-33   8.84197561903015E-33     2.210943484989095E-32    -3.292893344177656E-32   -3.9817404963083104E-32  -1.5544015559851358E-31  -5.786104753902053E-31   -3.9336500960401568E-31  3.8455849216385396E-32
6.2E-5                    -5.389356208996396E-36   -1.3223094719717875E-34  2.2296761458200383E-33   3.862778900732658E-34    1.296237689300942E-32    -4.6910256407762496E-32  5.758863549738142E-32    -1.7405430086024444E-31  1.2712628207966431E-31   5.196596308507617E-32    -4.1822242659168E-31
6.3E-5                    4.455568621300472E-35    -2.1882160169356377E-34  -2.1274127167648074E-35  -1.4604876256787522E-32  -1.843273552816676E-32   -1.009816000360663E-32   2.39324280738036E-31     -8.944810277793332E-32   8.124633061996882E-31    5.282755263955484E-31    -4.536999224591529E-31
6.4E-5                    5.965931285193768E-35    -1.8686982350864105E-35  -3.869291251334193E-33   -1.5870412834759827E-32  -3.7008733590990477E-32  5.642215993469184E-32    2.492179322726645E-31    -1.0035612290187496E-31  7.5475440412993E-31      4.175269338434368E-31    -3.0396179320819138E-31
6.5E-5                    -1.6743962394622499E-35  3.476115603402619E-34    -4.2689495988072356E-33  7.146241398124926E-33    -1.4115647418986673E-32  8.57177795962101E-32     -1.5611030240998345E-31  -9.800340957721776E-32   -6.118632446611489E-32   -1.944401049544867E-31   -1.7782128082361682E-31
6.599999999999999E-5      -1.2721856687921873E-34  4.385777912987776E-34    1.6242514914443366E-33   3.2910457469023817E-32   3.302399377814354E-32    2.9049640254886084E-32   -6.742217965670166E-31   2.273311662304188E-31    -8.070339890646246E-31   -5.79114429986478E-31    1.36536241822771E-31
6.7E-5                    -1.1201977819884392E-34  -5.107640635045106E-35   8.667259712026014E-33    2.388982453942425E-32    5.450358441618854E-32    -7.9900961369889E-32     -5.544643670558265E-31   7.205521881429725E-31    -6.4984638849310425E-31  -3.273005599894471E-31   7.098213191820903E-31
6.8E-5                    9.689677681896477E-35    -7.817550488056415E-34   6.989020317190776E-33    -2.483734889961018E-32   2.148572530154966E-32    -1.4043628380555703E-31  4.4071726781302516E-31   6.08168223088886E-31     2.521017698815771E-31    1.3534657077475232E-31   9.664926963925887E-31
6.9E-5                    3.0080921636294875E-34   -8.745853417256447E-34   -5.715911636066835E-33   -6.302600202067581E-32   -4.166003226499276E-32   -7.881727909540318E-32   1.3773919792665948E-30   -4.930811033589654E-31   8.007891299991039E-31    2.3856170988012132E-31   3.3868706937683623E-31
7.0E-5                    1.7603041901523232E-34   1.8523182067271775E-34   -1.6739893701894808E-32  -3.283150206567529E-32   -7.880532059991326E-32   7.292626951216591E-32    9.662529004979846E-31    -1.616927035985397E-30   1.8093082122411102E-31   9.553159598366971E-32    -7.863242444287658E-31
7.099999999999999E-5      -2.9752701821726124E-34  1.6296416546497268E-33   -9.603210993370364E-33   5.44365758876376E-32     -4.981082903762178E-32   1.9577044242709302E-31   -8.17037361895928E-31    -1.2470249138097334E-30  -1.0685265314106095E-30  1.8713186710700329E-31   -1.3725515432798953E-30
7.2E-5                    -6.215036325806291E-34   1.7224343410368133E-33   1.3646423547106313E-32   1.0823852917467514E-31   3.525237772223045E-32    1.8107611568583178E-31   -2.307137422995811E-30   6.900662145117963E-31    -1.4512501912506528E-30  4.520222562811331E-31    -9.448231681234073E-31
7.3E-5                    -2.3085873312967335E-34  -4.1387714474970784E-34  2.7438048456187267E-32   4.929724848486421E-32    1.1357161156793854E-31   1.720692145945379E-32    -1.721728869209661E-30   2.2958908186775142E-30   -8.67454981821557E-32    2.956513005517822E-31    -2.4102720376856444E-33
7.4E-5                    7.06351583207604E-34     -3.139576079738575E-33   1.0010646364551713E-32   -8.890292252718064E-32   1.0738616385441105E-31   -1.982526045401126E-31   8.618113445249404E-31    1.745672486909581E-30    2.1840467097190402E-30   -4.410528400904637E-31   7.482710574156883E-31
7.5E-5                    1.1503087049003345E-33   -3.209775405709532E-33   -2.475121310319018E-32   -1.7103085494847996E-31  -5.51626219396412E-33    -3.1730461768511585E-31  3.3070566432868694E-30   -4.952625276721968E-31   3.3495484803233006E-30   -1.0563699271719151E-30  1.093537534357732E-30
7.599999999999999E-5      2.4204924758999385E-34   6.888810013776251E-34    -3.618474027868288E-32   -9.185158897484116E-32   -1.4558535336004054E-31  -2.3226143595419096E-31  3.270807312837894E-30    -2.169785582731349E-30   1.9565248612416155E-30   -8.130566985865605E-31   1.1542576467532893E-30
7.7E-5                    -1.4112594419598381E-33  5.3876603820082724E-33   -5.801174269542565E-33   1.0320986791528939E-31   -1.8153353439009267E-31  4.509743403080352E-32    3.071801713200963E-31    -1.8233874884588814E-30  -1.5505222950264629E-30  9.658887988235568E-32    8.785904023121883E-31
7.8E-5                    -1.9314476960237937E-33  5.518079621933067E-33    3.374904265139236E-32    2.426611879672204E-31    -5.696229736882045E-32   3.628928649253998E-31    -3.639203503592277E-30   -1.997979818891637E-31   -5.022885544472812E-30   7.118781801084132E-31    -8.197053005933225E-32
7.9E-5                    -1.7963524526317995E-34  -6.029528576483731E-34   3.4872994586331926E-32   1.8466680189471294E-31   1.3682875566836646E-31   5.0332855413891815E-31   -5.6186051765639465E-30  1.058562125725665E-30    -6.096778478165074E-30   3.6128071986912236E-31   -1.895708685570621E-30
7.999999999999999E-5      2.457457711131573E-33    -7.89259696330311E-33    -3.80706980427185E-33    -4.689936879333768E-32   2.361541046283563E-31    3.293963773837554E-31    -3.765252027847649E-30   1.3466753318165101E-30   -3.7097129755326285E-30  -6.275248892682135E-31   -3.807409741593856E-30
8.099999999999999E-5      2.968661585365354E-33    -8.737673910210508E-33   -3.3244605051857167E-32  -2.768330906463356E-31   1.5534513050724312E-31   -9.71052504694247E-32    1.341282761410369E-30    1.1903738343703898E-30   1.364665621947599E-30    -1.3002428215520884E-30  -4.1117224347324185E-30
8.2E-5                    2.60510425235377E-35     -9.104887659855679E-34   -1.7350804783197078E-32  -3.2427630099988607E-31  -4.5371026300156243E-32  -5.350620335806652E-31   6.819587363353223E-30    8.642834573641469E-31    6.864546176244067E-30    -1.0673729172513444E-30  -1.62594912925243E-30
8.3E-5                    -3.815687746771705E-33   9.339822483269395E-33    1.9103369184743707E-32   -1.4124945457251304E-31  -2.246637030581333E-31   -7.2199663362458635E-31  9.029269181205959E-30    -1.994612891341505E-31   9.761739748900574E-30    -2.4104517492899524E-31  2.4454086457315785E-30
8.4E-5                    -4.1698945500513385E-33  1.2690674972267044E-32   2.3670972251785041E-32   1.665461999634396E-31    -2.654783430292423E-31   -5.412521499601953E-31   5.721535401322112E-30    -2.3249076858346806E-30  7.535901820549846E-30    3.3923395299949717E-31   4.666220870640684E-30
8.499999999999999E-5      2.677796271517067E-34    5.2994425146951854E-33   -1.3208680514655922E-32  4.2058591566720955E-31   -1.3274488181703401E-31  -6.582092225206033E-32   -2.316318713166887E-30   -4.356014031016135E-30   1.4493701229937175E-31   -1.544825738682122E-31   2.0093614108485197E-30
8.599999999999999E-5      5.347125053400605E-33    -7.657904013231317E-33   -4.3709969558142536E-32  4.617100952780505E-31    1.1258782924876623E-31   5.1656753608114745E-31   -1.1121904950441249E-29  -4.101810253072927E-30   -8.877368711804274E-30   -2.663116889223484E-30   -5.560985190749763E-30
8.7E-5                    5.24652552167864E-33     -1.6144159505673787E-32  -2.1530301679360336E-32  2.1180194835947036E-31   3.24042517361112E-31     9.83006645872957E-31     -1.5321071638640947E-29  -3.633199116093038E-31   -1.4424550814958976E-29  -8.363588663512619E-30   -1.4933353109800818E-29
8.8E-5                    -8.401394911964147E-34   -1.3056996045940148E-32  4.102341674467479E-32    -2.674134580238537E-31   3.3697962951487323E-31   1.1043243005310877E-30   -1.1168788106003698E-29  5.3824399184168555E-30   -1.4119419804096303E-29  -1.7461248935615702E-29  -2.183466114766382E-29
8.9E-5                    -6.776992394613118E-33   4.100905768882884E-34    8.25745916295424E-32     -7.304688856296134E-31   9.715977891906163E-32    7.003892581446791E-31    7.5436435039707514E-31   9.414896163506318E-30    -1.053926266288095E-29   -2.743668472180366E-29   -2.3470179927256093E-29
8.999999999999999E-5      -5.664572928998441E-33   1.5466340253495584E-32   5.195634648996093E-32    -8.239734327405224E-31   -2.5434572231990396E-31  -2.1240603717194905E-31  1.5011832889087826E-29   8.162610354450917E-30    -8.59213606597973E-30    -3.3683386211565604E-29  -2.066714242233744E-29
9.099999999999999E-5      1.9957078744878573E-33   2.1760462095702884E-32   -4.2582426737943656E-32  -3.363441988849367E-31   -4.589596856462419E-31   -1.2916372628695095E-30  2.3717708263832037E-29   5.668637511572378E-31    -1.1031974122781006E-29  -3.3402149129456085E-29  -1.7947732596177876E-29
9.2E-5                    7.841047989178418E-33    1.4169755691745376E-32   -1.3094442611880297E-31  5.452719916994768E-31    -3.463731744499142E-31   -1.9626199143212996E-30  2.0832655822180668E-29   -1.1404146306034219E-29  -1.720113447624448E-29   -2.9026260376716846E-29  -2.0327869362246477E-29
9.3E-5                    4.6844849327130786E-33   -4.4052961683334315E-33  -1.2727008604528636E-31  1.2588265880915405E-30   1.722692936009744E-32    -1.7658841833243396E-30  5.911859908632441E-30    -2.3914163160004454E-29  -2.5406453340945436E-29  -2.6980361528446696E-29  -2.9046481903340577E-29
9.4E-5                    -4.519704948651304E-33   -2.4669313115173114E-32  -2.4652363811186584E-33  1.24751154012891E-30     3.808098862160977E-31    -7.023196539057537E-31   -1.5055027157636382E-29  -3.2596384101006006E-29  -3.476207958806798E-29   -3.2753302850746584E-29  -4.0816564503764903E-29
9.499999999999999E-5      -8.754809908024084E-33   -3.420732042043586E-32   1.6779251775861067E-31   4.038087502477266E-31    5.076351824267163E-31    7.345830484811091E-31    -3.241084116746481E-29   -3.3616586932367357E-29  -4.4410683078174363E-29  -4.7300776267968544E-29  -5.153305607624442E-29
9.6E-5                    -1.4084308991975068E-33  -2.2304265533230957E-32  2.3832801983860218E-31   -8.141397007786628E-31   3.3681264639714187E-31   1.874876661072809E-30    -3.768413681279581E-29   -2.5469799135070713E-29  -5.284400689828016E-29   -6.755313721654978E-29   -5.989823280292163E-29
9.7E-5                    1.0246689552595471E-32   1.1429514020963565E-32   1.1105688915392141E-31   -1.6867548551076625E-30  -1.796182720585888E-32   2.2552995596083283E-30   -2.781342762306831E-29   -1.1459011494958997E-29  -5.970337367136781E-29   -8.923213101976666E-29   -6.732363023440717E-29