% Model:              Untitled.mph
% Version:            COMSOL 6.0.0.405
% Date:               Jul 15 2025, 12:17
% Dimension:          1
% Nodes:              401
% Expressions:        11
% Description:        Point graph
% Time (s)                Displacement field, Y component Displacement field, Y component Displacement field, Y component Displacement field, Y component Displacement field, Y component Displacement field, Y component Displacement field, Y component Displacement field, Y component Displacement field, Y component Displacement field, Y component Displacement field, Y component
0                         -6.60326688999702E-33    -5.249180413714326E-31   -2.163695823929089E-31   -1.7386731736326977E-31  -1.9138447311917916E-30  -3.185789535708889E-31   1.7115051048796473E-32   7.584171025009953E-32    3.324870596649903E-30    2.153640720162902E-31    3.0629909139295905E-32
5.0E-7                    -1.0807720548248114E-23  -4.1416806964639406E-23  1.822385966404706E-23    4.3492491865228777E-23   3.078050427582709E-22    -3.367802916439827E-23   2.0306605826046748E-26   5.6852670725788466E-24   -5.989133745341634E-22   -3.375819213542721E-23   -1.760331817753835E-24
1.0E-6                    4.510845226478777E-23    3.6511317051237037E-22   -3.9023502309842173E-23  -1.467412649246104E-23   -2.8573427302343423E-22  -2.776547060943527E-22   -2.3681032110799523E-23  -1.593873007924116E-22   6.891246142040348E-22    1.0905900733674752E-22   -2.5910619385444463E-23
1.5E-6                    -1.8017662668567736E-22  3.986240193366888E-22    3.9778201743886727E-22   -5.207955439931421E-22   -2.5448344515481628E-21  2.391608310107645E-21    1.1905567249080732E-22   8.521183182416485E-22    5.521741851013599E-21    -9.67000243170937E-23    7.863538753452103E-23
2.0E-6                    2.094965427466987E-22    -2.357486599677418E-22   2.5680705388915076E-22   4.33949233117064E-22     1.5561216820203906E-20   -6.580877048050135E-21   -2.9596221190904485E-22  -2.3800790689314775E-21  -3.34618707240011E-20    -5.607048058746663E-22   -1.312519028756888E-22
2.4999999999999998E-6     1.419941867857933E-21    -2.2564008212693967E-20  -7.017209065860927E-21   6.424916337541272E-21    -2.831173454708362E-20   -2.0335206980869076E-20  3.2734247834928067E-22   1.8482159705894206E-21   8.269558098555341E-20    2.739117733543147E-21    5.816886982098421E-22
3.0E-6                    -6.3112037636960934E-21  4.886753433567226E-20    1.76517419910957E-21     -8.275374801718E-21      -4.718447340560109E-20   1.5746169070849336E-19   5.391830706558688E-22    1.0145152055324603E-20   -1.0279073644199159E-19  -5.168798347029557E-21   -1.4378357642594675E-21
3.5E-6                    7.386183228046117E-21    6.098960419724606E-20    5.2721972434464496E-20   -4.278696756594537E-20   1.3901086337157512E-19   5.237054920997575E-20    -2.784204726348864E-21   -2.6407459316934584E-20  4.3463744632850205E-20   8.887103961490038E-22    4.859791526342378E-22
4.0E-6                    2.854341306260853E-20    -1.37286592983191E-19    -2.102174979700958E-20   4.2062632261068974E-20   5.490110743780801E-19    -1.345895524686883E-18   2.3431336480410336E-21   -2.209472751792201E-20   4.141791706172399E-19    1.5569359237247307E-20   4.439557290951927E-21
4.5E-6                    -8.972511477946626E-20   -8.565335291145762E-20   -2.938488841909019E-19   1.3865477036936557E-19   -1.3925020989704729E-18  -6.391696823881977E-19   9.341256724126923E-21    1.5037669797743265E-19   -1.8339140493732163E-18  5.784342183490315E-22    -1.9864814551100766E-20
4.9999999999999996E-6     -1.2167281293599807E-19  -6.85305950173433E-19    -2.2505067864339083E-20  -3.046111353592786E-20   -3.4791479741598356E-18  7.909886022099048E-18    -2.3219055426380305E-20  1.8385947296495604E-20   1.1974040461012031E-18   -3.941324741382313E-21   2.5457306649667044E-20
5.5E-6                    4.048661865933692E-19    -2.586476034713011E-19   1.165188739314663E-18    -3.658403120384665E-19   8.334398534378524E-18    8.188723413140418E-18    -1.4105640784151055E-20  -7.714075558377512E-19   8.86088513221566E-18     -1.0460586045916002E-19  1.289620037966169E-19
6.0E-6                    6.4814828029389E-19      7.340068111469183E-18    1.150910370154334E-18    -8.716919149645773E-19   1.430397569836201E-17    -3.285052021134555E-17   1.4031813912253635E-19   1.7637546394422537E-19   -9.094697446863342E-18   -3.5334833718621887E-19  -2.643279282318656E-19
6.5E-6                    -1.0571058201788638E-18  6.696643988308511E-18    -3.984852706609659E-18   -2.616305359844674E-19   -2.892757594855279E-17   -5.969367420761941E-17   -6.435359671384449E-20   3.761331393117971E-18    -3.068263422255237E-17   9.324285390949715E-19    -6.402179182278826E-19
7.0E-6                    -3.2824699219830675E-18  -3.50076197114463E-17    -1.1115238321435772E-17  1.1481286267448646E-18   -6.053002725457534E-17   8.150591473593983E-17    -6.914387890698298E-19   -8.574187712691334E-19   3.322517071182112E-17    4.684266363975604E-18    1.467325247400408E-18
7.499999999999999E-6      -6.735169284033593E-19   -5.666125070949351E-17   4.048673345869334E-18    -8.289516323270005E-18   2.7697435233464745E-17   2.695229552918333E-16    5.765900542259864E-19    -1.648974445142689E-17   1.3394572360633661E-16   -3.83043480073384E-18    3.330848073856266E-18
8.0E-6                    8.205446848267812E-18    9.329796540411155E-17    4.560009796793817E-17    -2.6758234277983975E-17  1.760735797708201E-16    -4.910519847584308E-17   3.020591494752819E-18    -8.621918479382957E-19   1.987165950243597E-17    -2.7272856813158785E-17  -4.5121154443896305E-18
8.5E-6                    1.0628722819079749E-17   2.530132541489952E-16    4.1257424286954224E-18   -1.1166498024183087E-17  5.7547982506899E-17      -8.431393890950373E-16   -2.0278191162738435E-18  6.286030898778632E-17    -2.9634516434960746E-16  1.9316020304738765E-17   -1.2845649000211622E-17
9.0E-6                    -1.2933183633245973E-17  -1.381390252760395E-16   -2.0541041588254166E-16  -1.7575792654038043E-17  -7.658428013365868E-16   -6.796540887683306E-16   -1.1221097153567376E-17  3.618591515285621E-17    -2.0942529564403884E-17  1.5094963974946964E-16   1.0957982062368658E-17
9.499999999999999E-6      -6.013125784147437E-17   -8.422425805374612E-16   -2.676059626923825E-16   -3.3066180521862437E-16  -1.5191768412386366E-15  1.2609051339434385E-15   3.830068300800316E-18    -1.8405923196459342E-16  1.6512928230570012E-15   6.185599868911448E-17    5.821353936184857E-17
9.999999999999999E-6      -9.942004028694454E-17   -3.669317085494453E-16   1.8932889285964818E-16   -1.007623203835288E-15   6.857271077497913E-17    2.5004729442672323E-15   3.764269762274368E-17    -2.312834907599976E-16   3.61125211923355E-15     -2.7636637408530435E-16  6.768532095274571E-17
1.05E-5                   -6.941218345715023E-17   1.1768460676931129E-15   2.936695344866164E-16    -1.5301138631827367E-15  1.6437696058340228E-15   -4.737074807849159E-16   7.821862699729233E-18    3.8690583071318683E-16   3.158130883167526E-15    1.3588220870908366E-16   2.9431167260155246E-17
1.1E-5                    9.724973336919326E-17    6.7768341323516E-16      -1.774129341950306E-15   -2.477377728844813E-15   -6.6354888766408475E-15  -6.698139351633947E-15   -9.880205658817961E-17   1.0060080925649614E-15   2.0782018653272994E-15   1.94733787743831E-15     1.5393897306823976E-17
1.15E-5                   2.811899676812978E-17    -2.909705666818544E-15   -5.501467625691017E-15   -7.734163779103501E-15   -2.5113050803518597E-14  -1.0132270577007527E-14  -6.56357145121539E-17    -6.566652673254972E-17   1.5603080278484688E-14   3.882597546190841E-15    3.6271667175444575E-16
1.2E-5                    -1.537468026963591E-15   -6.766593373348296E-15   -7.600469798436551E-15   -2.2671455607460677E-14  -3.6400486415344117E-14  -5.3203961299172904E-15  2.6060349845941825E-16   -2.435947673308381E-15   6.658253175182672E-14    5.336202691570643E-15    2.1110873916776313E-15
1.2499999999999999E-5     -4.905572649067807E-15   -1.1728526747589758E-14  -1.0371743688714071E-14  -5.152745146584871E-14   -4.7934640397061684E-14  3.717474627658642E-15    4.187524823870353E-16    -1.7580477775631965E-15  1.5052130682283714E-13   1.0318882743020054E-14   5.8620485489460875E-15
1.3E-5                    -6.931510530152508E-15   -2.1224464961534288E-14  -2.856078741842267E-14   -1.0502771710376535E-13  -1.239064881868393E-13   -6.229326334900084E-15   -2.6769809268943665E-16  4.853296836857702E-15    2.350773285437089E-13    2.8134904493136594E-14   9.579056605331136E-15
1.35E-5                   -6.737598476048229E-15   -3.4127036310248385E-14  -7.729709174950395E-14   -2.1910039023072292E-13  -3.238859520975698E-13   -6.752013869750071E-14   -1.056146374458407E-15   1.0755073090845967E-14   4.012195620430286E-13    7.327410796419386E-14    1.3905699501817462E-14
1.4E-5                    -1.678537613494215E-14   -6.817398969743484E-14   -1.5936048434592293E-13  -4.770485586625299E-13   -6.671192341162052E-13   -1.77668178512518E-13    3.872654458650656E-16    4.765562589926241E-15    9.823513131941412E-13    1.636458650132778E-13    3.5702438198910234E-14
1.45E-5                   -5.543301559041804E-14   -1.8421983036299945E-13  -3.028224795997351E-13   -1.0332834604184194E-12  -1.267937219483156E-12   -2.9442055091898154E-13  4.271104115867049E-15    -8.497614446963877E-15   2.3184929148581342E-12   3.2246903659999643E-13   1.0413053027333519E-13
1.4999999999999999E-5     -1.2516458327394464E-13  -4.3294626944142263E-13  -6.272937934044693E-13   -2.118093726505225E-12   -2.435813624717396E-12   -4.55488627159168E-13    5.76322779267649E-15     -1.594539904723666E-15   4.3389871127088124E-12   6.153598175450752E-13    2.3085996732842057E-13
1.55E-5                   -2.3092158543151255E-13  -8.09428889066594E-13    -1.3096072138674597E-12  -4.009148057645837E-12   -4.520548951849076E-12   -8.849721182495666E-13   1.1818668060915904E-15   4.5248361501747735E-14   6.9860629789804605E-12   1.2097841002097976E-12   4.189564165141861E-13
1.6E-5                    -4.341234391991757E-13   -1.3860183003953156E-12  -2.4595717398498856E-12  -7.094035404430051E-12   -7.866594092331088E-12   -1.8403150971824023E-12  -1.3553695837318937E-15  1.1196900119737926E-13   1.1376513725131817E-11   2.3468832212364005E-12   7.541568784406532E-13
1.6499999999999998E-5     -8.369955998920891E-13   -2.4808779044100737E-12  -4.2323389847287676E-12  -1.2152945648906154E-11  -1.3171981552069989E-11  -3.382368511764555E-12   1.4556311845391815E-14   1.6988878194156444E-13   1.9447313976862203E-11   4.220985665501756E-12    1.457007693288867E-12
1.7E-5                    -1.5198397675362558E-12  -4.564785801633591E-12   -7.291317652197615E-12   -2.0440554252733584E-11  -2.1453285558392693E-11  -5.608706485090899E-12   5.3820029344479325E-14   2.559039785870046E-13    3.1202751589417715E-11   7.014667774501239E-12    2.770455720206697E-12
1.75E-5                   -2.6541811252036025E-12  -8.070442063881004E-12   -1.2863670174356367E-11  -3.271266662869399E-11   -3.281860178778919E-11   -9.206030016167381E-12   1.0297519145888889E-13   4.763250235745633E-13    4.3248729947492406E-11   1.1140057758707935E-11   4.861005607783138E-12
1.8E-5                    -4.7276417610115075E-12  -1.3403196817276952E-11  -2.158247287363037E-11   -4.746897971175389E-11   -4.5234944947263675E-11  -1.5219787002256655E-11  1.5499333605594655E-13   9.207357012226952E-13    5.197067032010878E-11    1.7110479829721842E-11   7.965145859347936E-12
1.85E-5                   -8.332547033479674E-12   -2.0741705779250892E-11  -3.207688615239892E-11   -6.060715201113877E-11   -5.529957362784247E-11   -2.3647670443865688E-11  2.382636049199947E-13    1.654570118324028E-12    5.745584739530252E-11    2.4634010970619025E-11   1.2477873771066598E-11
1.8999999999999998E-5     -1.3435820024274084E-11  -2.929303340963357E-11   -4.153257500770354E-11   -6.801743016990705E-11   -6.050303694613797E-11   -3.245414421842715E-11   4.190669662476424E-13    2.8783897933461673E-12   6.171426831075579E-11    3.185379354761722E-11    1.8507649613353735E-11
1.95E-5                   -1.914779607921656E-11   -3.708288375792321E-11   -4.8259985234973094E-11  -6.881826074717811E-11   -6.020962145025693E-11   -3.8768296771884866E-11  7.938572167174483E-13    4.9854115993359246E-12   6.347941051362806E-11    3.614065538416014E-11    2.5346894934738767E-11
1.9999999999999998E-5     -2.4627280550594018E-11  -4.226741887359344E-11   -5.297873955518988E-11   -6.519386060234467E-11   -5.453640163315024E-11   -4.129525129239452E-11   1.4923156954267666E-12   8.221039335031216E-12    5.836877443315414E-11    3.5999701346169626E-11   3.1844897360462434E-11
2.05E-5                   -2.982004228572298E-11   -4.440625882355839E-11   -5.666925624349953E-11   -5.889451145422846E-11   -4.347077277095172E-11   -4.0929308018386877E-11  2.661529961406374E-12    1.2248831948285305E-11   4.50092452404724E-11     3.1879236728417453E-11   3.731282568827918E-11
2.1E-5                    -3.453596921385456E-11   -4.361480536948486E-11   -5.78910524446789E-11    -4.9138575199651275E-11  -2.7530763345030626E-11  -3.862365875276213E-11   4.403434229984843E-12    1.6314106671952524E-11   2.7318903660717496E-11   2.5049521996870875E-11   4.1343317795240356E-11
2.1499999999999997E-5     -3.710862683396705E-11   -3.9069534027832815E-11  -5.3668384551506626E-11  -3.448998900117727E-11   -7.892929635633751E-12   -3.333178298403617E-11   6.709207182834794E-12    1.995754870752752E-11    8.512008373448657E-12    1.6398956501781894E-11   4.256987365706388E-11
2.2E-5                    -3.524893958028321E-11   -2.992992769147379E-11   -4.271498715469661E-11   -1.5073007345350055E-11  1.5437983087982926E-11   -2.2856779040522115E-11  9.452537140386305E-12    2.3222590284200935E-11   -1.4500330359055696E-11  6.57534616815157E-12     3.8713918961313126E-11
2.2499999999999998E-5     -2.8601895051893943E-11  -1.7438174706818214E-11  -2.6056779154895706E-11  9.052240062764303E-12    4.4804167122386837E-11   -6.435369729510797E-12   1.2430516178536521E-11   2.584870400377776E-11    -4.8108819548167925E-11  -3.855514206669115E-12   2.8731064900856618E-11
2.3E-5                    -1.936076535238036E-11   -3.86274458897455E-12    -4.239080788790014E-12   4.119338300409333E-11    8.28271377951736E-11     1.434189892465569E-11    1.5386335279075166E-11   2.6674867319056285E-11   -9.50311058146808E-11    -1.5544837715102163E-11  1.4106196322266132E-11
2.35E-5                   -9.570919644062777E-12   1.1380224106807663E-11   2.4339145263354785E-11   8.740166340017949E-11    1.2962516250969332E-10   3.701700961328958E-11    1.7980704885342688E-11   2.4560319020041714E-11   -1.5273803354084807E-10  -3.108654535376559E-11   -3.2015695870739594E-12
2.4E-5                    1.5123804143143814E-12   3.2689657432594246E-11   6.157869887106719E-11    1.513096492050513E-10    1.8348847303789278E-10   5.990674808044821E-11    1.976247432291838E-11    1.9767947548442208E-11   -2.1770225030379387E-10  -5.330454686557657E-11   -2.3764800685157206E-11
2.45E-5                   1.6687298309654975E-11   6.411215728831685E-11    1.0762648799654314E-10   2.3011252563920436E-10   2.43750134128912E-10     8.276069683328316E-11    2.0242730736331067E-11   1.3498730458133846E-11   -2.885811193204957E-10   -8.276310335836953E-11   -5.0379706274465445E-11
2.4999999999999998E-5     3.8056452195908884E-11   1.053764633870993E-10    1.6152993608426044E-10   3.162544886212922E-10    3.1086953450219436E-10   1.0737159833026481E-10   1.908225461168595E-11    5.7795061789696536E-12   -3.651635520192427E-10   -1.1770405019686952E-10  -8.458661196596122E-11
2.55E-5                   6.587846669671366E-11    1.5310967117117717E-10   2.2252387751521108E-10   4.0295753729843244E-10   3.8336356792452633E-10   1.3778523301331906E-10   1.617584406235537E-11    -5.252030589470339E-12   -4.4619233951446397E-10  -1.5605276607212382E-10  -1.2446499267982665E-10
2.6E-5                    9.965615393796221E-11    2.0474773776437322E-10   2.8945733444899154E-10   4.883112059839285E-10    4.565654094276348E-10    1.7816675347984364E-10   1.140172752695409E-11    -2.1324123568237715E-11  -5.290020660475264E-10   -1.9630177059066854E-10  -1.6639197202090033E-10
2.65E-5                   1.389993789127944E-10    2.5966879587432407E-10   3.6002967771823507E-10   5.748294672259079E-10    5.251879938635426E-10    2.2898930097304532E-10   4.217451423860261E-12    -4.209562044361376E-11   -6.103013754303335E-10   -2.3657072158463946E-10  -2.084971362425222E-10
2.7E-5                    1.8293938749286973E-10   3.170799007049407E-10    4.3185730231398055E-10   6.6518230151369E-10      5.855889842533949E-10    2.8541158517808855E-10   -6.376057705313686E-12   -6.616431095054173E-11   -6.864722826757755E-10   -2.74435095003157E-10    -2.517653190841375E-10
2.7499999999999998E-5     2.292713260393166E-10    3.7459553923934E-10      5.03438877499948E-10     7.572270962608141E-10    6.346817350010957E-10    3.397238605051875E-10    -2.1323517363788745E-11  -9.335904332754318E-11   -7.530808658126477E-10   -3.0861029808638675E-10  -2.97613081947084E-10
2.8E-5                    2.7555482026149026E-10   4.2932930805903624E-10   5.72860741569157E-10     8.421898701865969E-10    6.680717809617024E-10    3.8536827759021006E-10   -4.0912882794102636E-11  -1.2464276182525848E-10  -8.041266717400714E-10   -3.39958205739715E-10    -3.446419891661959E-10
2.8499999999999998E-5     3.2067893181580223E-10   4.792185963003781E-10    6.36244770062887E-10     9.077888247971887E-10    6.804071463775537E-10    4.195634220803004E-10    -6.456351579590595E-11   -1.5972906975807E-10     -8.319187492108289E-10   -3.6956274157743365E-10  -3.880675900277146E-10
2.9E-5                    3.6454784013773833E-10   5.223310003577097E-10    6.884234065721576E-10    9.434571774251288E-10    6.665197459114671E-10    4.4378978770230285E-10   -9.09865946391499E-11    -1.961418549100372E-10   -8.283811018032038E-10   -3.9550928547156665E-10  -4.222490020374462E-10
2.95E-5                   4.057054099140513E-10    5.550095697278614E-10    7.241894138862598E-10    9.426331455323717E-10    6.211718255886751E-10    4.6176420693455E-10      -1.1851885434923265E-10  -2.3123975365192397E-10  -7.868985533777906E-10   -4.120265495281671E-10   -4.432956909578662E-10
2.9999999999999997E-5     4.3970209865797405E-10   5.711511357287195E-10    7.377977988859971E-10    9.009377736868353E-10    5.386502990172352E-10    4.747574361584306E-10    -1.4561455300385212E-10  -2.642010638424328E-10   -7.023140212265929E-10   -4.1221159728555704E-10  -4.490828020614134E-10
3.05E-5                   4.604154208225722E-10    5.634730621827771E-10    7.223850915665083E-10    8.137532800159612E-10    4.138164274106648E-10    4.773482797221386E-10    -1.7132010103453906E-10  -2.9505379452305224E-10  -5.687771636518682E-10   -3.916213881844032E-10   -4.3743529642014464E-10
3.1E-5                    4.6281947128160467E-10   5.257554529393832E-10    6.71482436111214E-10     6.755907288908687E-10    2.428923667716577E-10    4.585593037346551E-10    -1.95178424205914E-10    -3.221875067422731E-10   -3.7867821434166395E-10  -3.490159761458335E-10   -4.0498387544958856E-10
3.15E-5                   4.439533989973504E-10    4.544017115118556E-10    5.804448410977983E-10    4.798748993403287E-10    2.2252952645292196E-11   4.084533767598946E-10    -2.1638569836086522E-10  -3.418093977740467E-10   -1.2496914741204034E-10  -2.837307386252745E-10   -3.4755027385343486E-10
3.2E-5                    4.0149401676380815E-10   3.4809294732415886E-10   4.449662448100088E-10    2.1843840678754395E-10   -2.5235961003335416E-10  3.2369594707808197E-10   -2.330829692351136E-10   -3.4982548369963193E-10  1.9559139773736055E-10   -1.9313048356627486E-10  -2.6109933427221035E-10
3.25E-5                   3.3238353744534563E-10   2.0577066023984678E-10   2.590865619538377E-10    -1.1700954504671214E-10  -5.831592648252962E-10   2.066518439199232E-10    -2.428584829223496E-10   -3.433266586567729E-10   5.819998687516351E-10    -7.346392559163255E-11   -1.424955420297794E-10
3.2999999999999996E-5     2.331668570854244E-10    2.5056658580683645E-11   1.7066115243298913E-11   -5.307787757518433E-10   -9.663762673344504E-10   6.029236121170144E-11    -2.4408238280108523E-10  -3.1987270868308543E-10  1.0307985533547407E-9    7.70525427998678E-11     1.003527837749607E-11
3.35E-5                   1.0098845841418296E-10   -1.9691860891138228E-10  -2.8214602434193437E-10  -1.0201001462201478E-9   -1.3921170876094172E-9   -1.147903751586414E-10   -2.36285341343817E-10    -2.761616674607609E-10   1.536420251300352E-9     2.5709876768863364E-10   1.9690584536638714E-10
3.4E-5                    -6.613761753712031E-11   -4.6124949052427166E-10  -6.336960752303938E-10   -1.5761286550022943E-9   -1.8482051722758518E-9   -3.1919640113409485E-10  -2.1867513620512463E-10  -2.0839115371164008E-10  2.0891412969298642E-9    4.6437883597381495E-10   4.17524103136324E-10
3.45E-5                   -2.694277689237041E-10   -7.663442849114903E-10   -1.030630552278169E-9    -2.18709819764942E-9     -2.3225084994710246E-9   -5.528030493887402E-10   -1.8840525878393555E-10  -1.139403000789975E-10   2.673666394305603E-9     6.975224392066934E-10    6.701601890729247E-10
3.5E-5                    -5.088520339232932E-10   -1.1086821684662186E-9   -1.4676184731419644E-9   -2.83946512926172E-9     -2.800465738791299E-9    -8.148653372362946E-10   -1.4099449112123537E-10  7.909411289886217E-12    3.2704737998777855E-9    9.545442472774645E-10    9.508098316023374E-10
3.5499999999999996E-5     -7.821129223552866E-10   -1.4826168417116433E-9   -1.9397853446654665E-9   -3.5157773411804183E-9   -3.261460766906836E-9    -1.1043776110544695E-9   -7.283617154442673E-11   1.570010885694003E-10    3.857860371929492E-9     1.2296573227922285E-9    1.2518905522830411E-9
3.6E-5                    -1.0837403067635607E-9   -1.8784134650164352E-9   -2.4383618822637786E-9   -4.1916491202731035E-9   -3.67931384600429E-9     -1.4181926091439556E-9   1.693328528965506E-11    3.3339018070442856E-10   4.411527310961484E-9     1.5126743110437812E-9    1.561971037686029E-9
3.65E-5                   -1.4048799138597397E-9   -2.2813286869766844E-9   -2.948094774395893E-9    -4.835272336353456E-9    -4.026522100876223E-9    -1.748372775275272E-9    1.271424590773271E-10    5.368188019233834E-10    4.902277422275142E-9     1.7916939253478183E-9    1.866645993855951E-9
3.7E-5                    -1.7341628041422171E-9   -2.6734411508818545E-9   -3.4478638897255595E-9   -5.411025121037486E-9    -4.277296613039121E-9    -2.0823432955934446E-9   2.565612217259871E-10    7.650344829333985E-10    5.2956234480434364E-9    2.0554690258450463E-9    2.1498723293532705E-9
3.75E-5                   -2.0592345251513905E-9   -3.035668995375709E-9    -3.912102915797049E-9    -5.8846728709808136E-9   -4.406855879944839E-9    -2.4059694900340026E-9   4.0448916465543825E-10   1.0126696140702424E-9    5.5550045441222834E-9    2.292680922356685E-9     2.3953129331302587E-9
3.7999999999999995E-5     -2.367346557457182E-9    -3.347322439350281E-9    -4.311652570215244E-9    -6.224868020828572E-9    -4.389614054032802E-9    -2.7056095116402973E-9   5.693735978512863E-10    1.2715313112677687E-9    5.645591696708979E-9     2.4897640397187645E-9    2.587295356091985E-9
3.85E-5                   -2.6440141912184653E-9   -3.5849479824163127E-9   -4.615270711143936E-9    -6.398918528639464E-9    -4.199638326426105E-9    -2.966435015173267E-9    7.472912229103135E-10    1.531619670361244E-9     5.535057897425842E-9     2.630759653681949E-9     2.710632971245645E-9
3.9E-5                    -2.871327948860576E-9    -3.72374192071152E-9     -4.792293862155554E-9    -6.3680460089276116E-9   -3.813067560827151E-9    -3.169285737853049E-9    9.318924022783587E-10    1.7816841095926792E-9    5.1922204701418606E-9    2.6997107312018993E-9    2.7492562721131427E-9
3.95E-5                   -3.028521944201472E-9    -3.740878921661007E-9    -4.814580084223476E-9    -6.089200771839733E-9    -3.2100320784273552E-9   -3.2906373375854253E-9   1.1153875848128093E-9    2.008914425346821E-9     4.5876501897006746E-9    2.6826641462944604E-9    2.685315493547616E-9
3.9999999999999996E-5     -3.0947849861076194E-9   -3.6170475463820858E-9   -4.656348354185476E-9    -5.523212458497314E-9    -2.3755284325505376E-9   -3.3071323802876775E-9   1.2891643364303873E-9    2.1985674038343525E-9    3.697629358173461E-9     2.5671213869452877E-9    2.500560942143842E-9
4.0499999999999995E-5     -3.0514352988537883E-9   -3.33506868134205E-9     -4.293372560154456E-9    -4.641706427478946E-9    -1.3009193206102793E-9   -3.2010555943919656E-9   1.4435669475614826E-9    2.3346189541547368E-9    2.5083489680224557E-9    2.3404947487145306E-9    2.1794557785138266E-9
4.1E-5                    -2.881581432071244E-9    -2.8786571189432086E-9   -3.7039345272196216E-9   -3.4275807911731434E-9   1.3091307557977783E-11   -2.9616895813894568E-9   1.5676302639964427E-9    2.4012889841574487E-9    1.0173215026807282E-9    1.990503220375861E-9     1.7116353908183315E-9
4.15E-5                   -2.568887102607957E-9    -2.2340547469585984E-9   -2.871770351753661E-9    -1.872389908708573E-9    1.5532983741954917E-9    -2.581619065637173E-9    1.6494880137550316E-9    2.3838960882719123E-9    -7.672111649296058E-10   1.507746207192848E-9     1.092499183556422E-9
4.2E-5                    -2.0982654092365103E-9   -1.393287076429672E-9    -1.7890529833333786E-9   2.2899151211532492E-11   3.292515612366775E-9     -2.0525405829141004E-9   1.6771305032349147E-9    2.2681626966934776E-9    -2.8262838522468623E-9   8.879936320987131E-10    3.2295859592125306E-10
4.2499999999999996E-5     -1.4588581022930225E-9   -3.560082343525132E-10   -4.5782821178246565E-10  2.243071596426367E-9     5.190623142233729E-9     -1.3655152582171768E-9   1.6387995018419106E-9    2.039443904328465E-9     -5.128641708860488E-9    1.3262944449452062E-10   -5.903457011052907E-10
4.2999999999999995E-5     -6.469492836059917E-10   8.706702496428872E-10    1.1097904064768028E-9    4.755095688678969E-9     7.197351281971407E-9     -5.152268861929618E-10   1.5231292980966184E-9    1.6841056057039512E-9    -7.628351214116646E-9    -7.517496245539171E-10   -1.6342233123271993E-9
4.35E-5                   3.332075388658975E-10    2.2722760790059637E-9    2.891529258036567E-9     7.509412068840593E-9     9.254311136539057E-9     4.964954741748281E-10    1.3198400228974513E-9    1.1928029919622926E-9    -1.026288331804803E-8    -1.7531613050924648E-9   -2.7879107592534433E-9
4.4E-5                    1.4701309380948645E-9    3.825458188892396E-9     4.85454696765744E-9      1.0443176298422801E-8    1.1294094017574634E-8    1.660535258798197E-9     1.0211395479026022E-9    5.627815610693528E-10    -1.2953279593377408E-8   -2.8536807058244622E-9   -4.022133779554129E-9
4.45E-5                   2.745424829332159E-9     5.495751132959575E-9     6.9549282347194424E-9    1.3480457435190248E-8    1.323802719345681E-8     2.9614184601970866E-9    6.228479791682118E-10    -2.0266033399200062E-10  -1.5607069649852817E-8   -4.0294058521280375E-9   -5.298728788446498E-9
4.4999999999999996E-5     4.132768403508217E-9     7.2366656991911785E-9    9.137147619623945E-9     1.6529242011016312E-8    1.4997280050709413E-8    4.376221733854746E-9     1.2443763554389405E-10   -1.0958819096002724E-9   -1.8121861118368917E-8   -5.250972304119399E-9    -6.571264341271416E-9
4.5499999999999995E-5     5.596668123191123E-9     8.991128792920762E-9     1.1333763521673407E-8    1.9479955970778418E-8    1.647892738106681E-8     5.872337795386332E-9     -4.713059157784475E-10   -2.1048081348204633E-9   -2.0386903433483138E-8   -6.484012748383933E-9    -7.786387921072508E-9
4.6E-5                    7.092478807547694E-9     1.0694366063199518E-8    1.3466298020009172E-8    2.2208881022101087E-8    1.7592360979874566E-8    7.407799217060599E-9     -1.1575610186889449E-9   -3.210627283767173E-9    -2.2283802777234464E-8   -7.689370852314528E-9    -8.885384025660171E-9
4.65E-5                   8.567838868729358E-9     1.2276250670125481E-8    1.544789840572574E-8     2.4584860664620206E-8    1.8251266248963257E-8    8.935597422786982E-9     -1.9216384012909575E-9   -4.385740296787014E-9    -2.369044088042667E-8    -8.823332331298679E-9    -9.806219980794619E-9
4.7E-5                    9.964392009655234E-9     1.3662233572832532E-8    1.7186972187992932E-8    2.6475508629229347E-8    1.8373199816939308E-8    1.0408814103682857E-8    -2.743878066231208E-9    -5.594002082517196E-9    -2.4488704071708684E-8   -9.83818675689848E-9     -1.0486624124770348E-8
4.7499999999999996E-5     1.1218942116862559E-8    1.477437332972794E-8     1.8590747141685672E-8    2.7751179107527907E-8    1.7882711089846336E-8    1.1781901367319604E-8    -3.5987098239747988E-9   -6.792615261867244E-9    -2.4571663489017765E-8   -1.0683554358278411E-8   -1.0867591416751207E-8
4.8E-5                    1.2264469478991089E-8    1.5534611819801276E-8    1.956884089335919E-8     2.8287727599873227E-8    1.671917622128723E-8     1.3007003117264862E-8    -4.456712119198465E-9    -7.933677765733477E-9    -2.384709263921593E-8    -1.130883685479093E-8    -1.0895935923444712E-8
4.85E-5                   1.3032092589332838E-8    1.5870047066110204E-8    2.0036916088680448E-8    2.797015229817337E-8     1.484422150303148E-8     1.402923459997469E-8     -5.285174322935757E-9    -8.964606061734641E-9    -2.2239547417371128E-8   -1.1666295339398687E-8   -1.0525752674378779E-8