% Model:              Untitled.mph
% Version:            COMSOL 6.0.0.405
% Date:               Jul 15 2025, 12:22
% Dimension:          1
% Nodes:              401
% Expressions:        11
% Description:        Point graph
% Time (s)                Displacement field, Y component Displacement field, Y component Displacement field, Y component Displacement field, Y component Displacement field, Y component Displacement field, Y component Displacement field, Y component Displacement field, Y component Displacement field, Y component Displacement field, Y component Displacement field, Y component
0                         -5.351952821534113E-36   -2.1678415040210058E-35  -2.6377471867825582E-34  -3.991534124273589E-33   -3.80117730962378E-32    -1.5409113805162887E-31  -4.686217542168714E-31   -7.761749289396348E-30   -2.1014400742700862E-30  -1.2366000790165152E-30  3.452329536661926E-36
5.0E-7                    -3.5396172461152442E-28  2.0138503413977524E-27   2.98987943943308E-26     5.4392191000594E-25      5.581750904975489E-24    3.86907759082429E-24     -7.149697786488883E-23   3.9956692122856444E-22   -2.5768911106495523E-23  1.6333305436279172E-22   -2.354839877653471E-28
1.0E-6                    9.943678711312036E-27    6.256495696723592E-27    -6.194237466918611E-27   -8.584770233690645E-26   -5.0763644259291605E-24  4.0906226173091476E-23   5.077388333976116E-22    3.427959953815335E-21    1.5979067677438744E-21   -1.3925799616958624E-25  -2.9673447778209562E-27
1.5E-6                    -3.8892053511939747E-26  -4.145966756282105E-26   -9.946393275087484E-26   -2.757603890156145E-24   7.255702562075963E-24    -2.1279391049946326E-22  -2.560299460966827E-21   -2.465511604946791E-20   -3.4285073134125686E-21  -8.191515150489401E-22   1.6897977930524098E-26
2.0E-6                    5.751901377469418E-26    1.2144440916808622E-25   3.4558375696840846E-25   5.5290284282302675E-25   -3.481276620390893E-24   9.552702840114415E-22    1.2493500748788403E-20   9.618558331666257E-20    -8.841317043037615E-22   4.8461289021565345E-21   -2.952447811455879E-26
2.4999999999999998E-6     -8.974107148120965E-26   -3.121949229898681E-25   -1.324812518484382E-24   -1.8943988437674547E-23  -4.580569369483715E-22   -5.341743480335503E-21   -1.9689112255197616E-20  -1.676105405977323E-19   3.7619740302850324E-20   -2.8931747081478377E-20  7.194807930649292E-27
3.0E-6                    3.8987803885530127E-25   8.071119453740181E-25    1.9435167430351013E-24   2.0692111088990114E-22   1.7519185756981836E-21   5.143023490371919E-21    -2.685947309413469E-20   1.0103361509871217E-19   -5.730496819746442E-20   5.719378688049572E-20    -1.3067025896712831E-25
3.5E-6                    3.99408601090334E-25     1.221333489740209E-26    1.0815813872421901E-24   9.342792822207493E-23    -7.270460134670109E-22   2.54798956820647E-20     7.664458523544232E-20    3.1677679790415475E-20   -1.0553439431001027E-19  9.911683512560539E-20    3.645582274355728E-25
4.0E-6                    -5.5926613453612075E-24  -8.649302006910251E-24   -1.760388205603775E-23   -1.1237063798151908E-21  -7.840707110429859E-21   1.829870233553502E-21    -3.796003401202384E-20   -1.58455448323676E-18    9.76565875293074E-20     -3.258743366664707E-19   1.850998040496926E-24
4.5E-6                    9.782963099914335E-25    8.407577052382447E-24    4.6017742908399874E-24   -2.2736235423181207E-21  6.684509945800866E-21    -6.031895336545483E-20   9.357667804864637E-20    4.294253324508699E-18    -4.2889028364923085E-19  -6.011619192148189E-19   -4.66876210805108E-24
4.9999999999999996E-6     3.7111479236960076E-23   6.756966997439648E-23    1.9643455799477568E-22   2.4913164780179157E-21   4.4670912126654886E-20   -2.4306636050104676E-19  1.6703316139623737E-19   6.959863910491375E-18    5.059094204915319E-20    1.206274666994709E-18    -1.4343418709120513E-23
5.5E-6                    -3.1145096624694266E-24  -4.745750773485148E-23   6.374615269194969E-23    1.627676458078419E-20    -9.82128905975204E-21    -2.1563417115363216E-19  -2.139108214460645E-18   -2.3218354303996277E-17  4.742876186430345E-18    3.9370204082967216E-18   3.0980088198920197E-23
6.0E-6                    -2.0250226884046076E-22  -4.93672713006016E-22    -1.818226947316969E-21   3.86120008258834E-22     -3.700445881413291E-19   8.492083398362152E-19    -6.770866385748195E-19   -3.791323667962615E-17   2.1632084097872977E-18   -4.728002897656326E-18   1.0013523445161644E-22
6.5E-6                    -8.238708560836546E-23   -2.305993591501138E-23   -2.8090592389850932E-21  -8.972214256323367E-20   -3.4889713466946605E-19  2.2156404605146084E-18   1.2157901532121406E-17   6.179887948332378E-17    -3.4563847934826366E-17  -2.0210436070999545E-17  -1.4613615024509648E-22
7.0E-6                    9.030506483945873E-22    3.0005239829413686E-21   5.872553893889266E-21    -9.654770641858063E-20   1.6165952054668588E-18   5.5242421400645825E-19   1.079234283155978E-19    1.6709667378127387E-16   -7.45075034323018E-17    7.695382309441575E-18    -6.105872643380153E-22
7.499999999999999E-6      1.0824154566004965E-21   2.7642384069021262E-21   1.3405512266473952E-20   2.7385054911341967E-19   2.3502119030705913E-18   -9.913449491799567E-18   -7.749841987934452E-17   -8.493485830337689E-17   4.167951090777225E-17    6.726477002863947E-17    4.38472217641393E-22
8.0E-6                    -3.140958741835099E-21   -1.428052792336396E-20   -3.5672930818982956E-20  4.660199846147133E-19    -6.946324165049967E-18   -3.091815008353573E-17   -8.30731197773257E-17    -6.796213724258085E-16   2.9934380528073193E-16   -1.2424459337170655E-18  3.1400111848427597E-21
8.5E-6                    -8.399595311072747E-21   -2.878042628310774E-20   -1.556819950988124E-19   -1.4394445231869486E-18  -1.9601842813748657E-17  -2.9916850639936595E-17  1.7788748560013705E-16   -5.978939288883301E-16   -3.969912040171303E-17   -2.534086714251561E-16   1.3215174695235756E-23
9.0E-6                    5.3993815305242264E-21   4.339590168483384E-20    -1.7676987050181655E-19  -5.220483134411257E-18   -3.591301686351188E-18   5.361590511769567E-17    2.0544918040039302E-16   9.62689492562079E-16     -1.782350419315338E-15   -3.4355282717432165E-16  -1.2955710579518105E-20
9.499999999999999E-6      4.328173342402228E-20    1.7442657889477228E-19   -4.2786475551392533E-20  -4.539333773608814E-18   3.4250532920199985E-17   1.09525585749459E-16     -1.2053478540713474E-15  1.3998819152717397E-15   -3.5272804185839433E-15  9.528862358073795E-17    -9.270896556843984E-21
9.999999999999999E-6      1.2472752744718337E-20   -4.0858517888907434E-20  -8.056718815981903E-19   1.4109884027453134E-18   -3.257602290512755E-17   -3.819659385715346E-16   -3.643939999717368E-15   -4.925895162407267E-15   -1.955389694926883E-15   2.5333730315726316E-16   4.0455134650660615E-20
1.05E-5                   -1.855676001908315E-19   -8.076334085500121E-19   -4.884899782089032E-18   -1.707807060910672E-17   -3.509583459379627E-16   -1.875415553325014E-15   -4.017073834064691E-15   -1.683991585199434E-14   1.6112081318839103E-16   -2.3415759839151447E-15  6.408340552214171E-20
1.1E-5                    -2.247729063551639E-19   -7.460933813260694E-19   -1.4239181827704018E-17  -1.0788236945251647E-16  -7.878235146124107E-16   -3.452378303874082E-15   -3.5377715447329674E-15  -2.141628914641276E-14   -1.490207360472911E-14   -8.990699649787355E-15   -7.905413524376047E-20
1.15E-5                   4.711942627701834E-19    1.844851457424639E-18    -3.171465659290847E-17   -2.736698905818195E-16   -9.787897693603373E-16   -3.377589507143728E-15   -1.7100395336447642E-14  -2.290010141684017E-14   -6.79282876584603E-14    -1.6657546471177116E-14  -2.6030904884469156E-19
1.2E-5                    9.67061950989724E-19     3.3972385141420046E-18   -7.671270212752405E-17   -5.056612009322331E-16   -1.4866722403368692E-15  -5.066786544296239E-15   -6.481834044361999E-14   -7.752310479396281E-14   -1.5181848744718135E-13  -2.66887040202794E-14    2.6630151928665766E-20
1.2499999999999999E-5     -1.3838257402012849E-18  -5.302375660634753E-18   -2.1461600831274882E-16  -1.0721775761427865E-15  -5.301814810762576E-15   -2.3586729638856615E-14  -1.4951339364692476E-13  -2.472307651459204E-13   -2.4998558590215924E-13  -6.59630872193239E-14    7.879361508084983E-19
1.3E-5                    -5.274502818814582E-18   -2.4669202356559564E-17  -5.865747294061488E-16   -2.889789665660347E-15   -1.6855448170984502E-14  -7.72930907205209E-14    -2.732313578275257E-13   -5.195296920420069E-13   -4.606974720277993E-13   -1.8850203451164004E-13  6.7111481972571E-19
1.35E-5                   -2.5632291499453605E-18  -3.670043888921634E-17   -1.4778703220920765E-15  -7.646692398818362E-15   -3.849651026269108E-14   -1.6704874939590687E-13  -5.202882489134229E-13   -9.138362208223436E-13   -1.0966339318669695E-12  -4.437688873261069E-13   -1.2872180863178063E-18
1.4E-5                    5.8924579851029216E-18   -3.7804502261523005E-17  -3.5896363935245125E-15  -1.795968516627417E-14   -7.224033793614141E-14   -2.927837350510486E-13   -1.110681538216154E-12   -1.7306686495653656E-12  -2.5268327214250207E-12  -8.914719500755181E-13   -2.1862274840346255E-18
1.45E-5                   -6.826337542292732E-18   -1.0546761001915812E-16  -8.722405900306467E-15   -3.8821258419613574E-14  -1.352030803430392E-13   -5.465915365848974E-13   -2.309875089961519E-12   -3.4837417330012975E-12  -4.899890716868036E-12   -1.739934531883961E-12   3.1060321347988163E-18
1.4999999999999999E-5     -6.504477276406542E-17   -4.3258612223569117E-16  -2.0904441559504507E-14  -8.21187166688373E-14    -2.819929725364063E-13   -1.1944100320841072E-12  -4.33490005121679E-12    -6.506647337299859E-12   -8.354810887596004E-12   -3.477394931265118E-12   1.2812725231964609E-17
1.55E-5                   -1.421919140166154E-16   -1.3077139341059405E-15  -4.802294008462723E-14   -1.7565672465740994E-13  -6.107522435355417E-13   -2.596792934352205E-12   -7.586906241365293E-12   -1.1108568639518767E-11  -1.3807196422485555E-11  -6.793865822865768E-12   1.6227705131420317E-17
1.6E-5                    -2.1982575651482811E-16  -3.1744822079642697E-15  -1.0518964807399297E-13  -3.7565288345936015E-13  -1.2386851445797216E-12  -5.060539450211598E-12   -1.3101094263887964E-11  -1.8422599142720558E-11  -2.3019245214269327E-11  -1.2425676552032437E-11  1.6331878587762893E-17
1.6499999999999998E-5     -4.721252137724103E-16   -7.083233527777051E-15   -2.2289950110720665E-13  -7.774007835476041E-13   -2.2827985643897073E-12  -8.977265696969573E-12   -2.2361217165495546E-11  -3.017274439389466E-11   -3.6724220016681477E-11  -2.1175452254682942E-11  6.008540163822182E-17
1.7E-5                    -1.3492783373675473E-15  -1.5920029195159967E-14  -4.614973842789164E-13   -1.5214840710780177E-12  -3.930554827792539E-12   -1.5229979990899627E-11  -3.5954600792609654E-11  -4.634932297863902E-11   -5.2400301179059394E-11  -3.3774317101237725E-11  2.2710824169589685E-16
1.75E-5                   -3.4580835904005387E-15  -3.6538170688438826E-14  -9.25694165226623E-13    -2.8088010415892337E-12  -6.6019414513257375E-12  -2.5043136287951403E-11  -5.226986805060194E-11   -6.361277727779695E-11   -6.538775376182109E-11   -5.012127318800097E-11   5.800529895307193E-16
1.8E-5                    -7.725936649482113E-15   -8.250870806158228E-14   -1.7678889207527669E-12  -4.9365507659394364E-12  -1.0947499567241334E-11  -3.866799814134233E-11   -6.822945423383869E-11   -7.772025956079814E-11   -7.35941085131875E-11    -6.862371790428111E-11   1.2068997942215475E-15
1.85E-5                   -1.650305201550625E-14   -1.7777434307466248E-13  -3.1813728720821263E-12  -8.300098798551853E-12   -1.7349695260292735E-11  -5.4033903171944287E-11  -8.176642129812201E-11   -8.743613204547675E-11   -7.995730723549823E-11   -8.679784230058794E-11   2.5006360338374256E-15
1.8999999999999998E-5     -3.5336096948890604E-14  -3.6322995979860986E-13  -5.398324448256574E-12   -1.3218985268763157E-11  -2.5135922567615373E-11  -6.744001290204618E-11   -9.287211360651116E-11   -9.391870716712765E-11   -8.806736414142042E-11   -1.0240547241750446E-10  5.583855140426125E-15
1.95E-5                   -7.432207968655607E-14   -7.077852416180129E-13   -8.672126205065108E-12   -1.9519153839018717E-11  -3.242277481985378E-11   -7.619864100316663E-11   -1.0139405937782412E-10  -9.605224379574987E-11   -9.609824599954211E-11   -1.1343231781629748E-10  1.2571379461653978E-14
1.9999999999999998E-5     -1.4921408449467458E-13  -1.3195754764199055E-12  -1.3149416264282555E-11  -2.6106926717165103E-11  -3.7167484109265254E-11  -8.016072405262818E-11   -1.0454936673932926E-10  -8.959089714222722E-11   -9.817451828296804E-11   -1.1760801394662364E-10  2.6699647589616094E-14
2.05E-5                   -2.8459358850968425E-13  -2.346129699089332E-12   -1.8572949802415678E-11  -3.1001475541234726E-11  -3.853460732425661E-11   -8.006158499193747E-11   -9.818472853197504E-11   -7.289340610198082E-11   -9.163751988161535E-11   -1.1336474419014378E-10  5.312758866636526E-14
2.1E-5                    -5.191619099516409E-13   -3.951602721487995E-12   -2.4002058510251783E-11  -3.204576413374762E-11   -3.7015600632018E-11     -7.505070869700755E-11   -8.048620840502015E-11   -5.069471550126884E-11   -7.865876018124075E-11   -1.0087702403226863E-10  1.0138649666498783E-13
2.1499999999999997E-5     -9.056583937587926E-13   -6.261168058000979E-12   -2.793650496303742E-11   -2.790769436873199E-11   -3.317344246506446E-11   -6.299388617253818E-11   -5.28023942774182E-11    -2.848629522376245E-11   -5.890765047963289E-11   -8.044317242747383E-11   1.8927357419694844E-13
2.2E-5                    -1.4967930198728016E-12  -9.265495252243045E-12   -2.895301234429083E-11   -1.867487192889947E-11   -2.665051614075246E-11   -4.276211268228025E-11   -1.629229614029558E-11   -3.850860078698925E-12   -2.4723203075071055E-11  -5.0009229251696634E-11  3.4608301822939765E-13
2.2499999999999998E-5     -2.3232388914820796E-12  -1.2706985821087878E-11  -2.634565142010307E-11   -5.706844145316004E-12   -1.6583044580122232E-11  -1.4523958476863714E-11  3.0643457074388885E-11   3.339243723082724E-11    3.283600964645134E-11    -5.793459539744096E-12   6.120477547228935E-13
2.3E-5                    -3.3797033476764203E-12  -1.6035784351112627E-11  -2.0134028329018544E-11  9.017570609173924E-12    -2.4866602576397472E-12  2.2562014400886993E-11   9.06903773717938E-11     9.217110493390234E-11    1.1491128195402234E-10   5.520106118608796E-11    1.0326635232581402E-12
2.35E-5                   -4.610952284474557E-12   -1.8542727120950387E-11  -1.0540179099206826E-11  2.366630911547994E-11    1.580976534168669E-11    7.126017267904184E-11    1.6498415252091234E-10   1.7374269025856038E-10   2.1426101448985447E-10   1.3478128091668596E-10   1.6514248485700107E-12
2.4E-5                    -5.864723114186579E-12   -1.963562643586876E-11   2.315576432992667E-12    3.724810315594176E-11    3.8776313679343105E-11   1.3362297921957235E-10   2.5366424916641917E-10   2.742970638407943E-10    3.2265055306379886E-10   2.344278070882999E-10    2.50544168502474E-12
2.45E-5                   -6.8335431850093586E-12  -1.9020267084132632E-11  1.8215707972965117E-11   5.0104683289695125E-11   6.686206369868352E-11    2.0821262752511056E-10   3.578332046089432E-10    3.906673748459174E-10    4.378397023518875E-10    3.5440886180753797E-10   3.6147736341108533E-12
2.4999999999999998E-5     -7.105835412766227E-12   -1.6584387772717104E-11  3.675303075341317E-11    6.390564010367977E-11    9.941386670951822E-11    2.9114924001459974E-10   4.788197384468846E-10    5.214625604057706E-10    5.648076080914498E-10    4.927130478691967E-10    4.938780187243972E-12
2.55E-5                   -6.388542286312477E-12   -1.2130390258921426E-11  5.774377095397728E-11    8.091278103129075E-11    1.3467067884434278E-10   3.7968173609468214E-10   6.154183055934691E-10    6.640416791068347E-10    7.102811461669965E-10    6.461721094141878E-10    6.29301850976025E-12
2.6E-5                    -4.704672813674089E-12   -5.318379576544984E-12   8.146870368881603E-11    1.0275455614571292E-10   1.7123283616455158E-10   4.737001802434096E-10    7.629127365756902E-10    8.12520351406585E-10     8.738029062564932E-10    8.112699400473889E-10    7.292063506312351E-12
2.65E-5                   -2.275252438206002E-12   4.123522289023956E-12    1.0801338384562287E-10   1.293989775412157E-10    2.0898714763110394E-10   5.73668582178811E-10     9.144426833646981E-10    9.594136130538353E-10    1.043881228985614E-9     9.824821942136143E-10    7.426519528982957E-12
2.7E-5                    8.259531484577924E-13    1.630297337184154E-11    1.363249483719057E-10    1.589284833859889E-10    2.482136474336543E-10    6.779952304152898E-10    1.0622414499987978E-9    1.0991617712875275E-9    1.2048050167898347E-9    1.1511972411869662E-9    6.294250050637985E-12
2.7499999999999998E-5     4.751282217080799E-12    3.14009737228384E-11     1.6427385370867837E-10   1.8813711529347459E-10   2.8829456579163145E-10   7.827335904499647E-10    1.1980790659144173E-9    1.2292831944929794E-9    1.346680474204269E-9     1.3075107579367976E-9    3.835825455317043E-12
2.8E-5                    9.52060755757245E-12     4.982882478109865E-11    1.8977575837291244E-10   2.1344136685083605E-10   3.275230426815622E-10    8.827910036114542E-10    1.3139440579597348E-9    1.3462959495827978E-9    1.4662642829631726E-9    1.442327690589468E-9     3.709594081332373E-13
2.8499999999999998E-5     1.4809458151091475E-11   7.179938477627777E-11    2.1163706227887826E-10   2.3163024245281751E-10   3.633678412593067E-10    9.721449704220116E-10    1.4020685220647831E-9    1.4398863267382009E-9    1.5583658208823697E-9    1.5476143217689638E-9    -3.6107685436043457E-12
2.9E-5                    2.037574331617523E-11    9.661598775270713E-11    2.2922533940227651E-10   2.404262852197562E-10    3.924443152366163E-10    1.0426617123498352E-9    1.4526393591717371E-9    1.4927398249765818E-9    1.609400319750529E-9     1.6155304067285764E-9    -7.747930197271052E-12
2.95E-5                   2.6514246946434843E-11   1.2259010502600355E-10   2.4153416662884863E-10   2.3895311749147577E-10   4.110351901541212E-10    1.0832785064878765E-9    1.4511971609279898E-9    1.4868588943603933E-9    1.600357502004776E-9     1.636502048554195E-9     -1.199240725550613E-11
2.9999999999999997E-5     3.358204500921705E-11    1.478531991392623E-10    2.466789580002149E-10    2.27745803668198E-10     4.163797746291467E-10    1.0808020085514207E-9    1.3801418591677312E-9    1.4084630894982354E-9    1.514544893892406E-9     1.59648449468202E-9      -1.6588355966047782E-11
3.05E-5                   4.104682265073666E-11    1.7115290686813503E-10   2.4213211101213485E-10   2.0776086761710923E-10   4.0696002394584565E-10   1.0219904512077294E-9    1.2244102800719969E-9    1.2467878225516098E-9    1.3412375525448508E-9    1.4768299558853058E-9    -2.1875622910649242E-11
3.1E-5                    4.7638181666154946E-11   1.9167661668810626E-10   2.2532832037355034E-10   1.7870226775021907E-10   3.809384728316647E-10    8.959862907967824E-10    9.752548342577773E-10    9.914844783486376E-10    1.0722219004885213E-9    1.2588532078301076E-9    -2.8032827160966183E-11
3.15E-5                   5.278132079265631E-11    2.0820321189030505E-10   1.9412167896979293E-10   1.3800747371026745E-10   3.3486297257266454E-10   6.960489521435156E-10    6.275823811164213E-10    6.332033641164807E-10    6.965957648297645E-10    9.289800081264034E-10    -3.4918964043893587E-11
3.2E-5                    5.729961239254897E-11    2.1874392491002694E-10   1.4668945136673622E-10   8.151634389410647E-11    2.6470082721710815E-10   4.1938242854064073E-10   1.7472093812363993E-10   1.6525754992681527E-10   2.012040144499289E-10    4.793476351888322E-10    -4.211427240172531E-11
3.25E-5                   6.206641610804209E-11    2.2109041774353514E-10   8.097186864061054E-11    5.362330693454343E-12    1.678620183588435E-10    6.489466711304502E-11    -3.918251838379557E-10   -4.158167151194771E-10   -4.2283687040181335E-10  -9.515672691620368E-11   -4.90947059226403E-11
3.2999999999999996E-5     6.63093844300451E-11     2.1339618063765862E-10   -5.511976522094761E-12   -9.226032463628176E-11   4.3353948780927874E-11   -3.6896685461183647E-10  -1.0766674982008216E-9   -1.1092262134175068E-9   -1.1744057799628022E-9   -7.984397458766686E-10   -5.5366885414796093E-11
3.35E-5                   6.795762757807843E-11    1.9394092009854812E-10   -1.1470711678693972E-10  -2.1028176302766034E-10  -1.0986098305212757E-10  -8.834622161392214E-10   -1.8753306856753512E-9   -1.9087614139080866E-9   -2.04271266671328E-9     -1.6307701969458068E-9   -6.04782053319523E-11
3.4E-5                    6.545214914303156E-11    1.605711100587197E-10    -2.464918025336165E-10   -3.448334399818858E-10   -2.9311471124129393E-10  -1.4759226990765472E-9   -2.774142866389173E-9    -2.8041659158613195E-9   -3.0119028737302203E-9   -2.5840457842947815E-9   -6.397064571539914E-11
3.45E-5                   5.842138645936129E-11    1.1099684193927395E-10   -3.9813805872351713E-10  -4.899573695837484E-10   -5.054424134031235E-10   -2.1367807315923296E-9   -3.752904403420757E-9    -3.782843121966731E-9    -4.064632477805608E-9    -3.638469602188289E-9    -6.535610330611993E-11
3.5E-5                    4.668997525957401E-11    4.3950365059835284E-11   -5.65364484557081E-10    -6.388966059485991E-10   -7.412835858584292E-10   -2.8502164764300193E-9   -4.786181568931001E-9    -4.826516776838481E-9    -5.1808051449311995E-9   -4.763491088450903E-9    -6.409575862201878E-11
3.5499999999999996E-5     2.9661654234711926E-11   -4.031977249340079E-11   -7.436535976384889E-10   -7.856979007550922E-10   -9.92010712574435E-10    -3.5969464139092105E-9   -5.842530609901193E-9    -5.9045038278755354E-9   -6.331718783479447E-9    -5.92232513516521E-9     -5.956361810853135E-11
3.6E-5                    7.014016885241374E-12    -1.412224860536084E-10   -9.281424435007862E-10   -9.26206429549754E-10    -1.249752063330872E-9    -4.355113086684225E-9    -6.88316002410099E-9     -6.971952340007121E-9    -7.47497880735045E-9     -7.075725108829635E-9    -5.105971644920439E-11
3.65E-5                   -2.0878724151669204E-11  -2.5932001423206755E-10  -1.112153296557447E-9    -1.0574364993216103E-9   -1.5087706432899964E-9   -5.097899311768082E-9    -7.861028585924735E-9    -7.975770324677318E-9    -8.556035843634216E-9    -8.181181964871086E-9    -3.792105260111739E-11
3.7E-5                    -5.383182191243947E-11   -3.9578703834265827E-10  -1.2861111131724482E-9   -1.1754451923677915E-9   -1.7630338517360278E-9   -5.7907955249678096E-9   -8.721111777523642E-9    -8.861295704540862E-9    -9.514571523045601E-9    -9.188520596171303E-9    -1.964736446415909E-11
3.75E-5                   -9.259470099958768E-11   -5.497212127047611E-10   -1.438164428181883E-9    -1.2732624862736226E-9   -2.0032600190165336E-9   -6.39201433754166E-9     -9.402702222993159E-9    -9.573418223639719E-9    -1.0288153125101826E-8   -1.0036805143986421E-8   4.078379638556128E-12
3.7999999999999995E-5     -1.38021232809646E-10    -7.161503792847574E-10   -1.5559135675374805E-9   -1.340418865399156E-9    -2.2163768873421675E-9   -6.856102196864027E-9    -9.843326893479197E-9    -1.0054144360584882E-8   -1.0811269773779318E-8   -1.0656209341541285E-8   3.3478538875294E-11
3.85E-5                   -1.896433856968824E-10   -8.871559413653656E-10   -1.6275690126681667E-9   -1.3641779041203468E-9   -2.387000863194009E-9    -7.137631277386549E-9    -9.981969347033124E-9    -1.0241742554034466E-8   -1.101548442288174E-8    -1.0973695069159104E-8   6.8783148715397E-11
3.9E-5                    -2.4534699824446317E-10  -1.0548467539203887E-9   -1.6417760764021939E-9   -1.3316253523642247E-9   -2.49921985568671E-9     -7.192359151324814E-9    -9.759541596455353E-9    -1.0072726068916623E-8   -1.0833250100042496E-8   -1.091846278728868E-8    1.1023682902592521E-10
3.95E-5                   -3.020756788231782E-10   -1.212616792550075E-9    -1.5869973514812172E-9   -1.2320809775080756E-9   -2.5377693810528964E-9   -6.976601583594305E-9    -9.117764130112895E-9    -9.485223936599737E-9    -1.0201505101450359E-8   -1.0424984537124752E-8   1.5788574008391652E-10
3.9999999999999996E-5     -3.564570928154577E-10   -1.3532289963787805E-9   -1.4517399015656469E-9   -1.0594597902542371E-9   -2.488518982350028E-9    -6.447879240522573E-9    -8.000597194694284E-9    -8.42340275245338E-9     -9.06381859311491E-9     -9.43504110456997E-9     2.1108747593703375E-10
4.0499999999999995E-5     -4.0513833806613606E-10  -1.4661317862908941E-9   -1.2258392333473963E-9   -8.134585921402198E-10   -2.3388831148612603E-9   -5.5684723132997985E-9   -6.3607108245394696E-9   -6.842859921101626E-9    -7.374628566082808E-9    -7.901070927872251E-9    2.6798816610369134E-10
4.1E-5                    -4.4516726077872357E-10  -1.5373209870573204E-9   -9.020944291421113E-10   -4.983877080339942E-10   -2.0790920529688384E-9   -4.310217380059281E-9    -4.168038618667657E-9    -4.7152073019269415E-9   -5.105053427974203E-9    -5.790889999587201E-9    3.254654000735585E-10
4.15E-5                   -4.740794813457933E-10   -1.552205200129597E-9    -4.776788897322329E-10   -1.2025923614114757E-10  -1.7040329393663147E-9   -2.657852961503421E-9    -1.4151304226393593E-9   -2.0302832506465417E-9   -2.2450876894416928E-9   -3.091717022023052E-9    3.797437179678045E-10
4.2E-5                    -4.892804206865073E-10   -1.4988467961015566E-9   4.500571784192093E-11    3.154381549304552E-10    -1.2138075315852775E-9   -6.103259213034466E-10   1.8818818386381133E-9    1.2030169023155758E-9    1.1972756119384631E-9    1.8810277824608087E-10   4.272188186125959E-10
4.2499999999999996E-5     -4.873852589883659E-10   -1.3688699588165046E-9   6.58529050671944E-10     8.034316656044636E-10    -6.12050931564865E-10    1.8183986390836857E-9    5.683390229888583E-9     4.955233300855832E-9     5.192879126404579E-9     4.018780334232989E-9     4.648046900743464E-10
4.2999999999999995E-5     -4.644958324472264E-10   -1.1559172723170608E-9   1.3516532820819817E-9    1.3363565349526314E-9    9.621748788276483E-11    4.597648457664226E-9     9.925253525711931E-9     9.173431196738641E-9     9.68292258502194E-9      8.347370865579414E-9     4.896627478204104E-10
4.35E-5                   -4.172072959566814E-10   -8.539529891149782E-10   2.1101681434128893E-9    1.9023603058654895E-9    9.046311104892771E-10    7.67768395940785E-9      1.4517649024184839E-8    1.3777402643170577E-8    1.4573538935558442E-8    1.3093140292378935E-8    4.987913338304797E-10
4.4E-5                    -3.4320169687509966E-10  -4.576575633532435E-10   2.915842857674381E-9     2.483863344711481E-9     1.8030455380720119E-9    1.0988053172052045E-8    1.934465742713373E-8     1.8656143828284403E-8    1.9739074835898384E-8    1.8142454455300955E-8    4.889437188367595E-10
4.45E-5                   -2.4090097763276236E-10  3.51119850720632E-11     3.744152377695069E-9     3.0576139586595737E-9    2.7746602911009293E-9    1.4437940631949223E-8    2.426347710248591E-8     2.366677612589328E-8     2.502894708255654E-8     2.3347856383208428E-8    4.568832086035547E-10
4.4999999999999996E-5     -1.0889558285748286E-10  6.208704440461642E-10    4.56319930140747E-9      3.595899017568961E-9     3.794927978664778E-9     1.7918367351877567E-8    2.9103470140207865E-8    2.863788968332003E-8     3.027071302901382E-8     2.8532987500163003E-8    3.99689421945154E-10
4.5499999999999995E-5     5.3799574164377044E-11   1.289839577162254E-9     5.335078680260987E-9     4.068661691351085E-9     4.833120419131156E-9     2.1304572619257698E-8    3.366804996865369E-8     3.337650288033108E-8     3.5269848190404995E-8    3.349989418318528E-8     3.149201629168862E-10
4.6E-5                    2.465625381218982E-10    2.0267727206178023E-9    6.018366708450593E-9     4.445818174037703E-9     5.8556995113276344E-9    2.4457383046060565E-8    3.7741416375891094E-8    3.767536683127652E-8     3.9811554367300495E-8    3.8034543568989213E-8    2.0068590823954127E-10
4.65E-5                   4.661934342203926E-10    2.811693616235899E-9     6.5697971678989635E-9    4.699144999416752E-9     6.829269904803804E-9     2.7224903759173617E-8    4.109805689595988E-8     4.131852524596653E-8     4.3666554080674555E-8    4.1910776986347294E-8    5.5839740664518275E-11
4.7E-5                    7.072457829696453E-10    3.6198119308432364E-9    6.944963555379794E-9     4.803972939850388E-9     7.72106189667794E-9      2.9447171877152966E-8    4.351155444563206E-8     4.4086121259534896E-8    4.6599096739625924E-8    4.4896169511778026E-8    -1.1960398620848497E-10
4.7499999999999996E-5     9.63142061832835E-10     4.421346736156261E-9     7.099511676623361E-9     4.7410861386693985E-9    8.497201375072023E-9     3.096413531228092E-8     4.4762074381614274E-8    4.576053125519526E-8     4.837631712644928E-8     4.676126392650975E-8     -3.2397451967443215E-10
4.8E-5                    1.2264563204651986E-9    5.182124904267541E-9     6.991871446726675E-9     4.49809952719343E-9      9.121421843520076E-9     3.1624127046914174E-8    4.46443426970296E-8      4.613453507950173E-8     4.877925576530194E-8     4.729011191994607E-8     -5.537093564854365E-10
4.85E-5                   1.4879852377204553E-9    5.8648281678168985E-9    6.5868686880122355E-9    4.0691343247120064E-9    9.556569548818037E-9     3.129023863009798E-8     4.2977010727643764E-8    4.502065093229517E-8     4.7614127259871154E-8    4.6290180048123625E-8    -8.035720666491644E-10