% Model:              Untitled.mph
% Version:            COMSOL 6.0.0.405
% Date:               Jul 15 2025, 17:13
% Dimension:          1
% Nodes:              401
% Expressions:        11
% Description:        Point graph
% Time (s)                Displacement field, Y component Displacement field, Y component Displacement field, Y component Displacement field, Y component Displacement field, Y component Displacement field, Y component Displacement field, Y component Displacement field, Y component Displacement field, Y component Displacement field, Y component Displacement field, Y component
0                         5.73003955959071E-34     3.720998654487107E-33    1.6462522084222399E-32   3.463727033505293E-33    1.2217295302784185E-32   2.6468676352914624E-33   1.5264530028105266E-33   -8.885234156553024E-35   -2.117976362950343E-34   -3.563328150295683E-33   -2.2003743942833315E-32
5.0E-7                    5.851689651249955E-25    -1.9075211512760976E-24  -2.4641252628347016E-24  5.590803709663162E-25    -1.322613423403352E-24   -2.9890291227769903E-25  -3.3760086945276996E-25  -2.5420141721630617E-26  -4.61732562762018E-26    -9.909029127475185E-26   3.1463440741295325E-24
1.0E-6                    -1.6003390457725228E-24  -3.0650903712438957E-23  -8.164889031898507E-25   1.0344372810823462E-23   -3.670101996477579E-24   -7.921911084248339E-25   1.7110929276489685E-24   -6.0636042401140866E-27  7.86834146941099E-27     2.9207406497795934E-25   -3.987850999487369E-24
1.5E-6                    4.938564970814801E-24    1.4842218334083044E-22   1.5999444785965156E-23   -7.417365400547474E-23   1.9912815288755085E-23   4.848763905009483E-24    -3.531440397840369E-24   2.2211627374302814E-24   3.0317885867090084E-24   1.2557052672006401E-23   2.0549803314894612E-26
2.0E-6                    -6.306868364648857E-23   3.6864737311944443E-22   6.433331333932383E-23    -7.353519049968022E-23   6.03900756384481E-24     2.9454330015961412E-24   -1.7225632132165875E-23  -8.915895787412367E-24   -1.0164711637504744E-23  -4.837190903733359E-23   1.8086038878070776E-23
2.4999999999999998E-6     1.443531150813425E-22    -1.2047921101302817E-21  -3.1203160585943615E-22  1.0056382357277922E-21   2.297088720229501E-23    -3.060871207617377E-23   1.0167247069213408E-22   -5.514153183772417E-24   -1.7128283431049774E-23  -9.156076298059189E-23   -5.549484028630493E-23
3.0E-6                    8.897046281419674E-22    -3.3278342971920495E-21  -3.757933031143779E-22   4.509875499944213E-22    -9.890646260784434E-22   -1.5321037521298187E-22  -1.0265339348142986E-22  7.431173760231326E-23    9.847502683849768E-23    6.84806758950646E-22     9.785857647003094E-23
3.5E-6                    -2.6988560385636537E-21  4.6538740148883055E-21   3.15083187937864E-21     -8.693597772504329E-21   2.5363015948805537E-21   9.244718682565425E-22    -3.8898520474351864E-22  1.4360111021028637E-23   1.0519402835020265E-22   2.9460321595866254E-22   -4.294985659283048E-22
4.0E-6                    -4.350828266405178E-21   2.5340050478896112E-20   -1.3416543086823606E-21  -1.0800082860627343E-20  7.963923254636731E-21    7.217181229675583E-22    7.436832243226485E-22    -4.0675446507872246E-22  -6.914630797654462E-22   -5.7828715986988735E-21  1.1697153033951434E-21
4.5E-6                    2.7652365057131343E-20   7.736672043608937E-21    -1.1610078895465676E-20  5.805121865669137E-20    -1.7388300177239228E-20  -7.255536383955844E-21   1.3149263144342604E-21   -3.3527925031445804E-22  -8.124814140416867E-22   -1.909277974860175E-21   -1.5483206583659309E-21
4.9999999999999996E-6     1.419015138875116E-20    -1.2836545362254158E-19  2.0467530240701037E-20   1.1670729118169664E-19   -3.358014694454292E-20   -6.758125101158791E-23   -1.713867834488916E-21   1.6661536383253086E-21   3.745775907346475E-21    3.5150155206057926E-20   -4.357020546447694E-21
5.5E-6                    -1.9018495141400763E-19  -1.629168370791662E-19   4.920345816014661E-20    -2.3361235312721177E-19  1.3455966256017074E-19   5.1239583530984736E-20   -7.08837488600104E-21    3.516655761513866E-21    5.172457624887517E-21    9.102502963039272E-21    2.473543127477735E-21
6.0E-6                    -2.5688788990295422E-20  5.8721963921397225E-19   -9.483898638778297E-20   -7.314364017692912E-19   3.7543029293671396E-19   2.959007040441405E-20    -2.0183931712036427E-21  -2.9490776436049202E-21  -1.5128634458725145E-20  -1.6746647798449952E-19  -6.896633563739032E-20
6.5E-6                    1.138614507977642E-18    1.5184541807139038E-18   -1.6974875314554536E-19  5.437012629879447E-19    -6.60956308048077E-20    -1.9029528577351248E-19  4.9047580389119987E-20   -2.2578143936650964E-20  -3.034328260922097E-20   -9.723235954399803E-20   -8.042295417098746E-20
7.0E-6                    5.369876881701731E-19    -1.0812082300710302E-18  7.920720127496172E-19    4.373584666602847E-18    -7.294013752301939E-19   -4.4747598217444564E-20  7.628750499070014E-20    -2.4037552315268825E-20  2.425895809974429E-20    4.822390335234077E-19    8.195087808741337E-20
7.499999999999999E-6      -4.4377210738937185E-18  -6.5678574023846655E-18  2.5943580334150316E-18   6.0077184298276665E-18   3.1400532568608027E-18   1.3383413287713638E-18   -1.8450009984505652E-19  7.995863397939957E-20    9.48237053793535E-20     3.9873983728432938E-19   -1.5880106266420833E-18
8.0E-6                    -2.7404390694307485E-18  2.4762117822136963E-18   1.3888955941900505E-18   -1.1514938241337031E-18  1.535985801664683E-17    2.4207633350773395E-18   -3.6806768626144145E-19  2.3802528725489644E-19   2.0805547742181087E-20   -1.4428249194176492E-18  -6.676872756221593E-18
8.5E-6                    1.7810874141729035E-17   3.6397830745895664E-17   -3.754593438866705E-18   -5.291559065414618E-18   2.5898894549491057E-17   2.21219417789655E-19     9.922640184912043E-19    -9.195963345995771E-20   -3.0610987478994686E-19  -3.290929085417821E-18   -1.0653258415469096E-17
9.0E-6                    2.639706938363138E-17    3.769467831134088E-17    1.078077925973924E-17    5.947846603102027E-17    3.350154151412236E-17    1.898924434605641E-18    2.9680668275557764E-18   -1.2973125326262725E-18  -1.1454763561527964E-18  -2.0417729613149336E-18  -2.606564236864164E-17
9.499999999999999E-6      -1.6364520859098716E-17  -6.354701441343592E-17   9.380385515777416E-17    2.959966100411067E-16    1.2900042570646638E-16   2.9647902814367893E-17   5.236558332289834E-19    -1.5030992424250187E-18  -1.8613317118449206E-18  6.849752758384609E-19    -1.241067738143103E-16
9.999999999999999E-6      -2.4477829935904807E-17  -9.34278689229769E-17    2.3906255252985076E-16   6.826858016055217E-16    5.091695331166075E-16    9.227509417799947E-17    -2.6920028032938394E-18  2.6745959172703696E-18   7.833798132125837E-19    -8.430740013974206E-18   -4.0297812086633315E-16
1.05E-5                   1.6440787007574771E-16   3.778744200709956E-16    3.533521808350624E-16    1.1358707687813705E-15   1.3201108844263223E-15   1.7173462745665814E-16   1.3846543353606212E-17   7.644227936785608E-18    2.842202641861504E-18    -4.847740700929129E-17   -9.899278647581949E-16
1.1E-5                    4.749020348696013E-16    1.2589904597055814E-15   6.321904137714631E-16    2.5775363299646562E-15   2.77746712029259E-15     3.297647632837706E-16    5.3416116762829523E-17   -3.2888287550774412E-18  -2.2388378515885442E-17  -1.260683904489437E-16   -2.489952597765235E-15
1.15E-5                   6.729448604535572E-16    1.3072742622291697E-15   2.2026489179948858E-15   8.251528579890238E-15    6.181404396677852E-15    8.699111746435894E-16    8.117755498504711E-17    -4.040051251167588E-17   -8.798799109016674E-17   -2.6594077969321416E-16  -6.8887025210455314E-15
1.2E-5                    1.2163482201643076E-15   -5.457830532117033E-18   6.992234602033096E-15    2.285835169921979E-14    1.5120321245709307E-14   2.311256184879284E-15    1.2407267746286053E-16   -6.892757416647797E-17   -1.2358708566698003E-16  -5.706625061021123E-16   -1.8339406144919217E-14
1.2499999999999999E-5     3.631631747775586E-15    1.311460445499451E-15    1.665825337558959E-14    5.1660453428099394E-14   3.539186228935603E-14    5.2424452134685984E-15   3.5979700827623474E-16   -2.1519818710923098E-17  -1.0399256097046302E-16  -1.1723993938125093E-15  -4.473116836461254E-14
1.3E-5                    9.264064325822448E-15    1.267310984213482E-14    3.3528109596067083E-14   1.0887649965067684E-13   7.497313172736808E-14    1.0565780191425033E-14   9.260817913701935E-16    6.724528304677327E-17    -4.007116604087779E-16   -2.4352627378355313E-15  -1.0384773789997187E-13
1.35E-5                   1.8729455524602558E-14   3.4469551556783236E-14   6.786734068041469E-14    2.379504998208261E-13    1.4785238428223804E-13   2.038616602790131E-14    1.7677648948194051E-15   -1.1226744020678025E-16  -1.6408529885925257E-15  -5.972078133402575E-15   -2.3676486683849665E-13
1.4E-5                    3.594440054405328E-14    5.42975134727735E-14     1.4989019018679263E-13   5.285178702110402E-13    2.80951251508877E-13     3.9382921047654024E-14   3.2770898260145195E-15   -1.0169613627215705E-15  -3.731021329993285E-15   -1.4869397242351293E-14  -5.25098208315462E-13
1.45E-5                   7.412036190690723E-14    6.94166441845317E-14     3.3404907741269566E-13   1.1195725376095226E-12   5.17548677477224E-13     7.627623146788809E-14    7.312193756321092E-15    -2.538010849217318E-15   -6.0068250006761066E-15  -3.0839433825274017E-14  -1.1103393022727778E-12
1.4999999999999999E-5     1.5462461035835986E-13   1.2470709859927192E-13   6.889133498347599E-13    2.2156132796510063E-12   9.154532388067965E-13    1.438248397190329E-13    1.7091669513952607E-14   -3.494968120472566E-15   -1.0581336780866693E-14  -5.397682331441524E-14   -2.2261539850393946E-12
1.55E-5                   3.0181849813823057E-13   3.0549548251939955E-13   1.303855262473105E-12    4.15739623372446E-12     1.5479213052570952E-12   2.580163347149591E-13    3.667749081282201E-14    -3.5490942660544292E-15  -2.5116524541009545E-14  -9.599700340273008E-14   -4.246105392995017E-12
1.6E-5                    5.59587488383703E-13     6.676732788722817E-13    2.356729320443041E-12    7.513338729079173E-12    2.521506744830654E-12    4.4985453670484945E-13   7.38246866926181E-14     -7.717309806496395E-15   -5.795153893349956E-14   -1.9708493881242812E-13  -7.703167002726676E-12
1.6499999999999998E-5     1.0390433555695576E-12   1.2092760022063197E-12   4.196899227581762E-12    1.3024634355523236E-11   4.041664785034339E-12    8.077474080494011E-13    1.4820076872785833E-13   -2.6770932628216322E-14  -1.1107102279372618E-13  -4.1427298343546E-13     -1.3209987860070271E-11
1.7E-5                    1.9467829490708706E-12   1.9840394750808725E-12   7.310407016441471E-12    2.1231371137752126E-11   6.5575009751273475E-12   1.5282567366822766E-12   3.0185354754006083E-13   -6.619294692824134E-14   -1.9239167183887924E-13  -7.911310880711558E-13   -2.123315708691677E-11
1.75E-5                   3.5476429208692427E-12   3.2573556623305125E-12   1.2158283006968842E-11   3.1877503223066594E-11   1.0892846496078022E-11   2.9059602637599286E-12   6.040601832779095E-13    -1.1552671426542911E-13  -3.518454946450017E-13   -1.3891370305168126E-12  -3.1705343693322555E-11
1.8E-5                    6.13174556681674E-12     5.517140533182459E-12    1.906003109423973E-11    4.353728127365429E-11    1.8053150644305326E-11   5.2608963249469395E-12   1.1391295112702116E-12   -1.6927885599720937E-13  -6.992205897645638E-13   -2.403744048325669E-12   -4.357782240924784E-11
1.85E-5                   1.0054578363284981E-11   9.364977972858727E-12    2.8114777088376673E-11   5.389061139839616E-11    2.8478290711937024E-11   8.943638097601978E-12    1.9856787614251153E-12   -2.8083438314256655E-13  -1.3606035306381292E-12  -4.211689947883286E-12   -5.472931292896046E-11
1.8999999999999998E-5     1.5632010649007174E-11   1.5385682142989103E-11   3.885697157299021E-11    6.061581905294299E-11    4.1169736882696285E-11   1.4448211894115302E-11   3.261743976869983E-12    -5.79751020943668E-13    -2.4187359192474794E-12  -7.19138268519672E-12    -6.268957352055645E-11
1.95E-5                   2.2569177226778363E-11   2.3735396033049887E-11   4.97160230674665E-11     6.233817726899335E-11    5.3692050381276455E-11   2.2239952455958223E-11   5.324786338730715E-12    -1.1842906968892661E-12  -3.95339854706567E-12    -1.1422580789844647E-11  -6.580336280341151E-11
1.9999999999999998E-5     2.927524990738504E-11    3.322123612237595E-11    5.80335193492926E-11     5.884902019516104E-11    6.340164308899116E-11    3.1915659162218435E-11   8.999528730581981E-12    -2.0890648760485875E-12  -6.18429838367721E-12    -1.6511555427083728E-11  -6.362665203064683E-11
2.05E-5                   3.3172724386374826E-11   4.07315737950193E-11     6.096433114036924E-11    5.0248576548827816E-11   6.872153783358591E-11    4.1355349709995787E-11   1.5385835844440105E-11   -3.2354050785230202E-12  -9.469099165225546E-12   -2.1588332572984327E-11  -5.620372043981692E-11
2.1E-5                    3.2369808178696984E-11   4.251808846447425E-11    5.637507139235531E-11    3.587660517126734E-11    6.897181396308475E-11    4.738356806246715E-11    2.4953585002797337E-11   -4.79932139155181E-12    -1.3882184740022837E-11  -2.5436147063748678E-11  -4.353913520080666E-11
2.1499999999999997E-5     2.713998267943655E-11    3.7055490355247506E-11   4.3088300448889144E-11   1.4606876033500606E-11   6.308681427591944E-11    4.8131146964690577E-11   3.6498605721283696E-11   -7.326089602130541E-12   -1.858703881993851E-11   -2.6926671853386824E-11  -2.6010618045374334E-11
2.2E-5                    1.936363359210682E-11    2.657372383083181E-11    2.130280118947257E-11    -1.350212793883758E-11   4.915159634239175E-11    4.4663766114473157E-11   4.716999966614999E-11    -1.1265221496933284E-11  -2.1830767045067072E-11  -2.5734573137274437E-11  -4.178785733023359E-12
2.2499999999999998E-5     1.0550702057389125E-11   1.497250289901923E-11    -6.500266696574584E-12   -4.6696713311338117E-11  2.5629439645434294E-11   3.9459728682241376E-11   5.397715595854477E-11    -1.611333662249841E-11   -2.212459063887051E-11   -2.256733834865729E-11   2.30367969168411E-11
2.3E-5                    8.95835705023757E-13     3.941982956930431E-12    -3.6272651630909517E-11  -8.386508257945285E-11   -7.120974509613167E-12   3.308437998357355E-11    5.54881466059519E-11     -2.0171948845529097E-11  -1.9732431040831128E-11  -1.8267536928829928E-11  5.936984656049332E-11
2.35E-5                   -1.0023406830308888E-11  -8.52008878864546E-12    -6.610188327020688E-11   -1.2731521315661616E-10  -4.675456551066556E-11   2.306416549712265E-11    5.2011689407761025E-11   -2.1672010671732704E-11  -1.659281269754294E-11   -1.2626640406735057E-11  1.0882141184219366E-10
2.4E-5                    -2.287130295172441E-11   -2.5819856806163157E-11  -9.950385872088888E-11   -1.820536427425969E-10   -9.038640508811624E-11   6.3485321237331586E-12   4.4250233649756175E-11   -2.0503978238027327E-11  -1.4221671605006846E-11  -4.425645187924074E-12   1.721303190013589E-10
2.45E-5                   -3.922825205966235E-11   -4.95857343207344E-11    -1.4347297245772637E-10  -2.514931095394263E-10   -1.3658496882557816E-10  -1.7707289266704076E-11  3.2113759232972077E-11   -1.864017911459211E-11   -1.187340917011303E-11   7.415055526579582E-12    2.4645495652756075E-10
2.4999999999999998E-5     -6.120162069379708E-11   -7.87155311209448E-11    -2.0230564015205308E-10  -3.335094196624232E-10   -1.8676430789899408E-10  -4.7153754542888875E-11  1.4820915684587256E-11   -1.829845584649646E-11   -7.373272271319419E-12   2.323701472982936E-11    3.279622575868262E-10
2.55E-5                   -8.919374625615744E-11   -1.1063031403124665E-10  -2.7349537854397376E-10  -4.2005455052319915E-10  -2.4467696640411614E-10  -7.983212080712061E-11   -8.448465610238826E-12   -1.934041018411125E-11   4.326700486434907E-13    4.309727778519558E-11    4.132934000653905E-10
2.6E-5                    -1.2090719181336707E-10  -1.429167804884863E-10   -3.4891722052603475E-10  -5.005222294454561E-10   -3.1347643435677063E-10  -1.1582972050161438E-10  -3.846755394624601E-11   -1.8572454598710973E-11  1.10425440619588E-11     6.694321354750599E-11    4.990488608333305E-10
2.65E-5                   -1.5363340465508413E-10  -1.7444576268727301E-10  -4.1841787336151975E-10  -5.671906742001036E-10   -3.922484845921532E-10   -1.5801261285458786E-10  -7.618573173691651E-11   -1.1950240283893358E-11  2.4277893952247976E-11   9.39835090211953E-11     5.819972528572368E-10
2.7E-5                    -1.8651589145233263E-10  -2.05869629463278E-10    -4.729858323730079E-10   -6.194733028249924E-10   -4.75256262416851E-10    -2.1000954977674715E-10  -1.2238189933040542E-10  2.1464256943326315E-12   4.1671043359057175E-11   1.2263476487967973E-10   6.601367211946802E-10
2.7499999999999998E-5     -2.1912915139075276E-10  -2.3895108386439084E-10  -5.081976991530886E-10   -6.626066632615082E-10   -5.547682433385383E-10   -2.7278222607186296E-10  -1.7697439143261992E-10  2.1472878530743956E-11   6.49035466656327E-11     1.5168865940582683E-10   7.316580861802383E-10
2.8E-5                    -2.4897376728716617E-10  -2.745584701936619E-10   -5.271782333870421E-10   -6.996946437588622E-10   -6.247536136192182E-10   -3.427642074209894E-10   -2.3884830393760376E-10  4.163685050547082E-11    9.342553854562289E-11    1.8104259504546692E-10   7.919144275797227E-10
2.8499999999999998E-5     -2.7276004259373655E-10  -3.1098096523677963E-10  -5.383315599944868E-10   -7.233216588158081E-10   -6.823178384831904E-10   -4.137083509662336E-10   -3.0592299921774433E-10  5.968790771920306E-11    1.245379714801901E-10    2.1067590216581287E-10   8.325040003686901E-10
2.9E-5                    -2.8999460774907866E-10  -3.445088717311579E-10   -5.462455409552573E-10   -7.158475526575582E-10   -7.263675683880045E-10   -4.803403100839358E-10   -3.745260309781413E-10   7.676736936202733E-11    1.555385021455595E-10    2.392858909156771E-10    8.441168173266265E-10
2.95E-5                   -3.0292316578115836E-10  -3.7145643181177095E-10  -5.430669103494368E-10   -6.599288643077567E-10   -7.550737700140659E-10   -5.397199566080053E-10   -4.387846783027678E-10   9.759344032716254E-11    1.8503894282621476E-10   2.6462454734366633E-10   8.196191189722033E-10
2.9999999999999997E-5     -3.12210677551419E-10    -3.886319805429998E-10   -5.096753405727261E-10   -5.494886426140763E-10   -7.637847354013737E-10   -5.893344301343179E-10   -4.920975040260186E-10   1.269127874936579E-10    2.1259577057481577E-10   2.849811762976981E-10    7.538855742255642E-10
3.05E-5                   -3.1418964497165345E-10  -3.9153046641771105E-10  -4.266222599727908E-10   -3.8983740424528154E-10  -7.443829184947049E-10   -6.251008353559845E-10   -5.305931373940795E-10   1.6555810780634124E-10   2.382071901877999E-10    2.995036809075573E-10    6.412681103816527E-10
3.1E-5                    -3.0281830929402194E-10  -3.734320752574022E-10   -2.8507907657677486E-10  -1.8723154473083071E-10  -6.864350709419808E-10   -6.419036827899221E-10   -5.550461296095238E-10   2.0928137748154726E-10   2.6224356744698774E-10   3.06753086860789E-10     4.738671035479271E-10
3.15E-5                   -2.728665044287234E-10   -3.279236864872657E-10   -8.906518228854171E-11   6.031304440871003E-11    -5.795827660550433E-10   -6.35402515991761E-10    -5.682770323598014E-10   2.5131241849399394E-10   2.8461183070446335E-10   3.0336965360421215E-10   2.423621578507012E-10
3.2E-5                    -2.2069002898517253E-10  -2.524281092125332E-10   1.5078745170800926E-10   3.616238519067701E-10    -4.1583371295783247E-10  -6.022959149946965E-10   -5.69818740510281E-10    2.864300450137596E-10    3.030087038675079E-10    2.845031558101401E-10    -6.095368512877476E-11
3.25E-5                   -1.4359826037732307E-10  -1.4847818549337433E-10  4.253303050715545E-10    7.237529259455234E-10    -1.9054690990419712E-10  -5.385507640819026E-10   -5.52717770819756E-10    3.131553410158673E-10    3.12267003041965E-10     2.454652348227993E-10    -4.3869295317044755E-10
3.2999999999999996E-5     -4.0021545763982664E-11  -1.8711470999127297E-11  7.311300868283835E-10    1.1459292188482091E-9    9.81396781045365E-11     -4.3762801196690976E-10  -5.050172914174605E-10   3.3253982302231566E-10   3.0622105125146376E-10   1.831128832067086E-10    -8.86891961790086E-10
3.35E-5                   8.973590636221454E-11    1.355641146281394E-10    1.0692392762011228E-9    1.619703776997382E-9     4.5065888200086465E-10   -2.905542420294171E-10   -4.140859601029213E-10   3.45013525618255E-10     2.8060618142890955E-10   9.646023125490687E-11    -1.3967848987610802E-9
3.4E-5                    2.431067501722072E-10    3.143293223553008E-10    1.4398487609462464E-9    2.1310592821306944E-9    8.667453411209577E-10    -8.793559130820983E-11   -2.706259611305646E-10   3.4811034213793697E-10   2.341506255590067E-10    -1.3254481063582554E-11  -1.9580140320105732E-9
3.45E-5                   4.152505917541174E-10    5.179869018841316E-10    1.8359429880611784E-9    2.6610874502985878E-9    1.344371111207553E-9     1.7697150216929056E-10   -7.097017860390846E-11   3.367468738054811E-10    1.6699805763328816E-10   -1.432362095820219E-10   -2.5597571399485518E-9
3.5E-5                    5.999934033767341E-10    7.466304756013156E-10    2.2403911351022405E-9    3.1869295392301173E-9    1.877144950687352E-9     5.050906972281412E-10    1.8236669795540432E-10   3.0550228216957507E-10   7.851184753710434E-11    -2.9060132940470245E-10  -3.188420951690067E-9
3.5499999999999996E-5     7.926525871229616E-10    9.982252980364715E-10    2.6293620372919874E-9    3.6844729010307898E-9    2.4522132937045376E-9    8.895771291397833E-10    4.821228836713554E-10    2.5088204080708277E-10   -3.2981520307338553E-11  -4.535296708536547E-10   -3.824158249043108E-9
3.6E-5                    9.92880308409151E-10     1.266159297019702E-9     2.979382603965998E-9     4.129848504716946E-9     3.050654157402444E-9     1.3167349898090947E-9    8.195883605055621E-10    1.7176622200027521E-10   -1.6831398832176402E-10  -6.308861196839824E-10   -4.4392600796890775E-9
3.65E-5                   1.20321069017253E-9      1.5393395857421304E-9    3.2711632785870335E-9    4.496882586446936E-9     3.649831857780333E-9     1.7701320262134988E-9    1.187848489397209E-9     6.796954972995089E-11    -3.25753620719487E-10    -8.208689165472646E-10   -4.999203478363821E-9
3.7E-5                    1.4225395245283426E-9    1.8055598827681885E-9    3.4868201009156846E-9    4.753588836417014E-9     4.224952236337257E-9     2.2354976430860423E-9    1.5822042362202644E-9    -6.125739924591817E-11   -5.015067793346506E-10   -1.0202402837423793E-9   -5.4652381170373475E-9
3.75E-5                   1.6404693528880023E-9    2.053803404859602E-9     3.6049840544559E-9       4.863460025284865E-9     4.748195994121715E-9     2.7025834034292772E-9    1.9971041415479902E-9    -2.169001128328688E-10   -6.918634714112922E-10   -1.2242858423098076E-9   -5.7974960492381285E-9
3.7999999999999995E-5     1.8389674051668144E-9    2.2718544059415903E-9    3.6001729425737516E-9    4.7916367679210185E-9    5.187100477634144E-9     3.162159230961846E-9     2.422109471157914E-9     -3.984229104829513E-10   -8.944052310919674E-10   -1.4263131379250445E-9   -5.957857642064827E-9
3.85E-5                   1.999850140829314E-9     2.442285360395789E-9     3.4463875844643236E-9    4.509743690653323E-9     5.504988258075445E-9     3.6002960167567296E-9    2.8400318064349915E-9    -6.030084412529473E-10   -1.106605948304625E-9    -1.6166111453575957E-9   -5.911263663208024E-9
3.9E-5                    2.1098720205815007E-9    2.543124673279798E-9     3.1198830446263154E-9    3.995431251218296E-9     5.663761805563057E-9     3.994433298678604E-9     3.2278460248818424E-9    -8.270366290067548E-10   -1.3229046696316775E-9   -1.78242336847777E-9     -5.624810809450515E-9
3.95E-5                   2.158567208512479E-9     2.5541389738116117E-9    2.599388449596715E-9     3.2298371562580693E-9    5.626751427967565E-9     4.314246233458351E-9     3.5585657043540466E-9    -1.0677637080248245E-9   -1.5329726160691724E-9   -1.9096975275319558E-9   -5.066389823101483E-9
3.9999999999999996E-5     2.133094323653284E-9     2.462574212334089E-9     1.867401119276027E-9     2.1979008818992776E-9    5.359871129115792E-9     4.52634100853283E-9      3.802699574353274E-9     -1.322212687885797E-9    -1.722856973857489E-9    -1.9851575429661592E-9   -4.2057180972222035E-9
4.0499999999999995E-5     2.017451470350718E-9     2.2626413554858457E-9    9.147329278929818E-10    8.917525966802672E-10    4.831880324176586E-9     4.5990158822772935E-9    3.929854675467263E-9     -1.583450858696508E-9    -1.8780881064813082E-9   -1.9968144896460124E-9   -3.018455850669042E-9
4.1E-5                    1.7973895677040472E-9    1.950124675059461E-9     -2.5499603865560097E-10  -6.855545779196849E-10   4.015542931184343E-9     4.504217900192447E-9     3.9113179276511935E-9    -1.8380099502315646E-9   -1.9861906010351007E-9   -1.9328985114365054E-9   -1.4913368191549906E-9
4.15E-5                   1.4656309121280135E-9    1.5181348402766864E-9    -1.624670262075699E-9    -2.517064141777817E-9    2.8900338894933824E-9    4.217073025072019E-9     3.7226510499140846E-9    -2.067664150894116E-9    -2.036842890044835E-9    -1.7809292701965642E-9   3.7408723303005705E-10
4.2E-5                    1.0223278377837005E-9    9.57421380399838E-10     -3.165554029549501E-9    -4.569822739735616E-9    1.4434163551695499E-9    3.7153390411795864E-9    3.3443903348572284E-9    -2.2544819344996706E-9   -2.0202366076151213E-9   -1.5285470059731022E-9   2.5600030797785827E-9
4.2499999999999996E-5     4.711847313772382E-10    2.597118841302916E-10    -4.838162664647803E-9    -6.795127679182669E-9    -3.255862495010847E-10   2.9801373120853743E-9    2.760729878363014E-9     -2.3846661603282832E-9   -1.9255920812253625E-9   -1.1662687681795416E-9   5.032657165284191E-9
4.2999999999999995E-5     -1.8435607376247252E-10  -5.783967612602807E-10   -6.591904022561693E-9    -9.131563041160825E-9    -2.4057451597136026E-9   1.9973176777857768E-9    1.9585495840143656E-9    -2.4477435126337172E-9   -1.7411423977364757E-9   -6.907170809708854E-10   7.742990339555893E-9
4.35E-5                   -9.411529045933276E-10   -1.5515037664464566E-9   -8.36611835057793E-9     -1.1507769098883662E-8   -4.77026993417775E-9     7.58512111285501E-10     9.290937445316419E-10    -2.4321223575068473E-9   -1.455467101170733E-9    -1.0615548917540318E-10  1.0626225510805342E-8
4.4E-5                    -1.7925600859929095E-9   -2.6420309567127073E-9   -1.0093091754732914E-8   -1.3841891357466109E-8   -7.373209010195221E-9    -7.376308704210112E-10   -3.2802759341213525E-10  -2.321647104213581E-9    -1.059500545242744E-9    5.767955575477727E-10    1.3600666874265233E-8
4.45E-5                   -2.7239322927015555E-9   -3.819903265869797E-9    -1.1700531647716972E-8   -1.60392502252388E-8     -1.0148046872081683E-8   -2.4827061386776684E-9   -1.8009763189734305E-9   -2.0970506468858512E-9   -5.487431846690988E-10   1.3440355803412823E-9    1.65675531685305E-8
4.4999999999999996E-5     -3.710925127262853E-9    -5.046681523786847E-9    -1.3111739536036396E-8   -1.7992546825249207E-8   -1.3010599602556362E-8   -4.454297197366956E-9    -3.463976457276142E-9    -1.7416428557537332E-9   7.490101927522699E-11    2.179814716213586E-9     1.9413100941610904E-8
4.5499999999999995E-5     -4.72153617828846E-9     -6.281173638895087E-9    -1.4244816438927894E-8   -1.9586442387608778E-8   -1.5864720876819364E-8   -6.612422491487187E-9    -5.277859718296457E-9    -1.246508194922336E-9    8.025619349365992E-10    3.066153086935639E-9     2.2011789148050534E-8
4.6E-5                    -5.71995067562104E-9     -7.481663422135559E-9    -1.501349403420041E-8    -2.070456535881276E-8    -1.8606541011555434E-8   -8.899357569378479E-9    -7.191723210132075E-9    -6.110735788270969E-10   1.6195213187518435E-9    3.9810371259394944E-9    2.42295170899469E-8
4.65E-5                   -6.669550485532125E-9    -8.603530936833823E-9    -1.5330917386513393E-8   -2.1236059961929447E-8   -2.1124640441777352E-8   -1.124321929587071E-8    -9.144490080798572E-9    1.6037189187367625E-10   2.507128794893646E-9     4.897344083821994E-9     2.5926891993291135E-8
4.7E-5                    -7.533855446562316E-9    -9.595834245526251E-9    -1.511592585655865E-8    -2.108045696799291E-8    -2.3298247434084186E-8   -1.3562760330704494E-8   -1.1065665145089331E-8   1.0617388473169989E-9    3.443967553177401E-9     5.782867740770996E-9     2.69639274258245E-8
4.7499999999999996E-5     -8.275851859458776E-9    -1.0401145793735573E-8   -1.4300270562151558E-8   -2.0151816621820633E-8   -2.499786832568713E-8    -1.577024825793931E-8    -1.2875417063328756E-8   2.0842660844661928E-9    4.405538140662831E-9     6.6005886991484625E-9    2.7206504900797825E-8
4.8E-5                    -8.856926399046857E-9    -1.0960009721227473E-8   -1.2835079799722326E-8   -1.838376712935349E-8    -2.6090158300828236E-8   -1.777163883588476E-8    -1.4485039486626062E-8   3.2125710125139698E-9    5.3631129057186745E-9    7.3092616030865104E-9    2.6533578869547684E-8
4.85E-5                   -9.236552458387963E-9    -1.1218197236958119E-8   -1.0695840746898825E-8   -1.5735279719540004E-8   -2.644484460455372E-8    -1.9466046453108455E-8   -1.5798860664728408E-8   4.421351622782321E-9     6.282908868630086E-9     7.865603657206066E-9     2.4843943011742718E-8