% Model:              Untitled.mph
% Version:            COMSOL 6.0.0.405
% Date:               Jul 15 2025, 16:45
% Dimension:          1
% Nodes:              401
% Expressions:        11
% Description:        Point graph
% Time (s)                Displacement field, Y component Displacement field, Y component Displacement field, Y component Displacement field, Y component Displacement field, Y component Displacement field, Y component Displacement field, Y component Displacement field, Y component Displacement field, Y component Displacement field, Y component Displacement field, Y component
0                         9.99206767835516E-38     9.93794721608991E-36     -5.796771533643618E-35   2.1072911006667013E-33   -8.504413837702027E-34   3.9487619612817826E-32   1.5846750563817343E-32   -2.313521634453485E-38   3.9422473448381476E-36   -1.6255183532394456E-32  -5.04451197675894E-32
5.0E-7                    -3.704023010638285E-29   -3.499013333803999E-27   3.7764956771605807E-25   -1.777569972078675E-24   7.44541585723938E-25     1.852571294806281E-23    4.530145873315431E-24    1.870021952843636E-30    4.581840191729582E-27    3.836636302867439E-24    7.463795998604828E-24
1.0E-6                    1.7867233712893276E-28   9.85396860778084E-27     -6.87672291023958E-25    2.4316292998615027E-25   -9.387746406757279E-24   -2.4673824525153942E-23  5.2653842911738073E-23   8.682598736612439E-29    2.899214312720521E-26    2.042657592320224E-24    -1.152693836469241E-23
1.5E-6                    -9.5952757160856E-28     2.852519332737856E-26    -8.171347965498103E-24   3.0526061821336947E-23   1.184472037564155E-22    -3.581022968556081E-22   4.487310980528233E-23    -6.775269061548619E-28   -5.307001370339571E-25   -1.5028806598971233E-22  -5.761043303034265E-23
2.0E-6                    -1.3481145685209272E-26  1.6912506365485202E-25   1.334118842475136E-23    -4.1802029233315303E-23  -5.67663571204924E-22    7.379380885065816E-23    -7.122499138919746E-22   1.1982467877247062E-27   1.1875693266486678E-24   8.016781554243629E-22    2.8922085219407946E-22
2.4999999999999998E-6     7.264633127068658E-26    -3.591176444323108E-25   1.553420713364341E-22    5.428442270607539E-23    6.8977530072114635E-22   5.290241164008027E-21    5.574113764852639E-21    -4.3828944690086815E-28  7.0402201178806985E-25   -1.8239307368952456E-21  -2.5906114984082474E-22
3.0E-6                    1.4034773747294145E-25   -1.768138110671538E-24   -1.6057108646855885E-22  -5.844545445773752E-22   5.531677219003612E-21    2.9440030538683875E-21   8.88474197835332E-21     1.2231524056113053E-26   -2.8010195417397004E-24  -3.668699214873184E-21   -1.8907615549190944E-21
3.5E-6                    -7.41011922244188E-25    -9.993042350357792E-24   -1.63229177648038E-21    7.174327493459613E-22    -3.9441621916646E-21     -3.3869007788102596E-20  -3.758802188474498E-20   -5.853806651065108E-26   -3.6525471953328755E-25  9.233177134342336E-21    -2.4553677819461528E-21
4.0E-6                    -1.5434292506684021E-24  1.9095518457289995E-23   3.0777058905771465E-22   1.0246501071702864E-20   -4.417927460309013E-20   -4.2649814489048624E-20  -7.038350699733116E-20   4.3842016019575756E-26   3.593949622409253E-23    5.102762181352168E-21    1.654227352400314E-20
4.5E-6                    4.173149056952677E-24    1.4839900895364614E-22   1.067582552167098E-20    -1.7250813849089766E-20  -3.896974257410796E-21   2.3654263934555414E-19   2.234580718126148E-19    5.43290420737001E-25     -1.0048409412308131E-22  -7.827385286717572E-20   -1.3980876539267417E-20
4.9999999999999996E-6     1.2695183749624474E-23   -9.153269962107703E-23   7.628843739123023E-21    -7.831364756601501E-20   3.3841311459105586E-19   5.321855134994903E-19    8.219374214688592E-19    -1.7317125722754945E-24  -6.6634643540831015E-22  -1.0394915745529198E-19  -1.3239338018024655E-19
5.5E-6                    -1.0490632540394378E-23  -9.247550308900964E-22   -4.224452731950125E-20   1.9516040333872477E-19   5.699906122286385E-19    -8.247956558641303E-19   2.6254615678644106E-19   -3.36684318986446E-24    1.1631918471941713E-21   -1.6803439634100615E-20  5.53915720169621E-20
6.0E-6                    -6.460803400241695E-23   1.6108821680446366E-23   -9.583799538883814E-20   5.122127916513543E-19    -1.5175486831101185E-18  -2.7752266426590623E-18  -2.7597096328705763E-18  1.5103896435242806E-23   5.664422162369064E-21    -5.076603049298837E-19   1.7347004389541344E-19
6.5E-6                    -1.217600024698311E-23   3.0517577333662047E-21   2.4258472018039076E-20   -1.1672226468304536E-18  -5.231140954324738E-18   3.1443826701759103E-18   -3.8444131675396194E-18  2.66862005988194E-23     -6.5909325853401E-21     -1.0226707582747066E-18  -1.7758162946449208E-18
7.0E-6                    2.070663442814672E-22    1.0609411054467851E-21   5.123456080794467E-19    -2.2790917550250966E-18  6.4944106868294636E-18   1.6589876966592944E-17   9.761950691598561E-18    -7.668688816659684E-23   -3.702145514971017E-20   -2.0707494338566114E-18  -4.0758660993681826E-18
7.499999999999999E-6      1.5928687256145095E-22   -2.1039326338902104E-21  6.851838385816561E-19    6.553328780691515E-18    3.9097247310381226E-17   9.39194271689624E-18     4.639498925969244E-17    -2.1350737520018447E-22  6.254068864247329E-21    -1.3759049621975296E-17  -7.648493441348893E-19
8.0E-6                    -3.396479714018564E-22   6.379248170442225E-21    -1.600161303017573E-18   1.3008776205208482E-17   3.937949991661507E-18    -2.5319788911313074E-17  7.166585521919797E-17    1.6603529235325982E-22   1.4690256143232851E-19   -3.801965735726291E-17   -7.872426305983298E-18
8.5E-6                    4.1391406598396107E-22   -2.06612753503322E-20    -4.697669731008655E-18   -1.8034130858836784E-17  -1.4997279669802733E-16  1.494337531072911E-19    6.016763405038848E-18    1.18283875940972E-21     5.685470371434406E-22    -5.42469846591091E-17    -7.176027405607157E-17
9.0E-6                    2.68235177721414E-21     -1.0609486456427206E-19  2.200386219578193E-18    -3.9240956677321544E-17  -5.136574977871474E-17   1.9162972212683297E-16   -7.821157072431628E-17   6.178466595318833E-22    -7.231693738215692E-19   -9.496693290294896E-17   -1.8488905323634992E-16
9.499999999999999E-6      -1.9471550688639687E-21  5.3381685161387336E-20   1.860654058297355E-17    8.02470533786839E-17     6.730283209279123E-16    5.032464496861567E-16    3.3913545897636063E-16   -4.305584464457718E-21   -8.435771890469437E-19   -3.3140456423885975E-16  -3.0790929265395985E-16
9.999999999999999E-6      -1.50275981902997E-20    7.098309903521005E-19    7.900749602041162E-18    2.334903674215456E-16    9.814342793938981E-16    8.054222733396066E-16    1.9569827493429428E-15   -8.186291736340726E-21   8.681411877951993E-19    -1.0855855364410639E-15  -7.748449075107332E-16
1.05E-5                   1.2692818521187798E-20   7.39231693171479E-19     -3.874920747856121E-17   5.076328759446441E-17    -5.677371839809815E-16   1.3828887710085432E-15   4.618561459051673E-15    3.590669923427463E-21    -1.5149876299145732E-19  -2.7818392489944327E-15  -2.5037016653991716E-15
1.1E-5                    1.4740357250192786E-19   -1.7011706235129513E-18  -8.872731931002759E-18   -2.2239804511489023E-16  -1.0903463818257264E-15  3.7099729822272116E-15   7.23494180705795E-15     2.84308758298263E-20     -1.2756003759868454E-17  -5.93397476062101E-15    -6.540585501789615E-15
1.15E-5                   2.617741104389016E-19    -4.279528657993711E-18   1.7852262556245646E-16   5.403310601864949E-16    5.651327278807577E-15    1.0736451585878259E-14   1.1099903786298066E-14   2.2014082538965557E-20   -3.1855955805919187E-17  -1.2800474234160804E-14  -1.504851616059164E-14
1.2E-5                    -1.273847449883684E-20   2.160194696353879E-18    3.1273993629154747E-16   2.4377666382690664E-15   1.6710160531240803E-14   2.6168473125180097E-14   2.547648162119421E-14    -6.959170391188428E-20   -4.15169534265907E-17    -3.158812050002455E-14   -3.516284192211407E-14
1.2499999999999999E-5     -4.201893522402842E-19   2.2980182515827416E-17   2.859999537566466E-16    3.755994441722616E-15    1.9275934042331776E-14   5.5336205292259835E-14   6.830983794234629E-14    -2.54205922004857E-19    -9.012304443802801E-17   -7.688899271365076E-14   -8.16380150998529E-14
1.3E-5                    1.2648653906754428E-18   4.069329878256026E-17    9.711361315729223E-16    5.015295203243147E-15    2.4212530086034323E-14   1.1207779324582195E-13   1.559071525106033E-13    -4.433851442070658E-19   -3.491346564237554E-16   -1.6710663727204847E-13  -1.8053404586360835E-13
1.35E-5                   7.9805733684565E-18      2.0438602236275776E-17   3.773331195030897E-15    1.1558948067125385E-14   8.290810450252839E-14    2.326406509957316E-13    2.925219333437436E-13    -3.5158926756114405E-19  -9.940307670611302E-16   -3.4757783834638816E-13  -3.9210525546625886E-13
1.4E-5                    1.8078159793222896E-17   -2.33585522262332E-17    8.931159224608878E-15    2.734504560583852E-14    2.2021898810650041E-13   4.932306592195546E-13    4.863601749457201E-13    5.969970244371837E-20    -2.1373375919010197E-15  -7.411087232088244E-13   -8.471994111472433E-13
1.45E-5                   2.5379074004320466E-17   7.634160335769092E-17    1.6999137460484595E-14   5.1964252767978354E-14   3.8563224234348254E-13   1.0140326642556971E-12   7.882151850126165E-13    -1.6040530442253427E-18  -4.44835002535372E-15    -1.5397034543779364E-12  -1.7415233114700084E-12
1.4999999999999999E-5     4.045467129989015E-17    6.307053501877079E-16    3.541561255296647E-14    9.527427419752249E-14    6.080752863717976E-13    1.920618229880242E-12    1.2858380223111682E-12   -1.1774800313455212E-17  -1.0460676326887573E-14  -2.9295817440249617E-12  -3.3016245332681937E-12
1.55E-5                   1.2520018995513105E-16   1.7964674324790382E-15   8.250495583643612E-14    1.8912339925032973E-13   1.1931232998125323E-12   3.3185995505996677E-12   2.0129569455282073E-12   -3.4697022666404786E-17  -2.5497116160070023E-14  -5.190210787909758E-12   -5.890666122557118E-12
1.6E-5                    3.940719486740592E-16    3.2463002239531803E-15   1.839587442727468E-13    3.711089546348032E-13    2.5288844103611296E-12   5.477324065045711E-12    2.8932637546778464E-12   -6.326375771626886E-17   -5.79384815801441E-14    -9.012028881737156E-12   -1.0228006028493526E-11
1.6499999999999998E-5     9.636316813676152E-16    4.9357822248102856E-15   3.763242732134871E-13    6.796672273963406E-13    4.6690348261553495E-12   9.19916330306389E-12     3.901416746307743E-12    -1.0212021218835606E-16  -1.2183633652322121E-13  -1.5342875070448508E-11  -1.7130520845800428E-11
1.7E-5                    1.9694627870144653E-15   9.794196658507718E-15    7.300838956690026E-13    1.2258142902625147E-12   7.533748685030972E-12    1.5705645407207425E-11   5.35519080533867E-12     -2.4512906380011295E-16  -2.4730650601384744E-13  -2.4248275552232653E-11  -2.639310943841779E-11
1.75E-5                   3.8749183107336885E-15   2.600052759815755E-14    1.3681455838418732E-12   2.3096649919156243E-12   1.167054686686333E-11    2.5441998841663648E-11   7.962812344058422E-12    -7.293116397567974E-16   -4.990975464208907E-13   -3.400106903845376E-11   -3.5991665860725974E-11
1.8E-5                    8.13736533092525E-15     6.420287187611952E-14    2.4611236279762855E-12   4.435647350840769E-12    1.8101796123629258E-11   3.679229973288412E-11    1.2488825512575634E-11   -1.8556280281111586E-15  -9.897699439626382E-13   -4.2212015077032786E-11  -4.340669653741576E-11
1.85E-5                   1.793079256053747E-14    1.3218187886337792E-13   4.248881760206388E-12    8.089385465908855E-12    2.683633074688542E-11    4.6776663339290797E-11   1.9431953095341093E-11   -3.9432554073576324E-15  -1.8722778615196336E-12  -4.8089354872193423E-11  -4.81786011862652E-11
1.8999999999999998E-5     3.8627423685910757E-14   2.4266704868899817E-13   7.078292509948157E-12    1.3300218183035511E-11   3.616774540618639E-11    5.367209490272446E-11    2.8987006447932873E-11   -7.851654840153094E-15   -3.3312136712277672E-12  -5.25612984537352E-11    -5.2015487058633506E-11
1.95E-5                   7.867787272662164E-14    4.438899288797875E-13    1.1206389263625896E-11   1.928307588778313E-11    4.4194291177974326E-11   5.826986375060922E-11    4.08221799524995E-11     -1.6313150066510412E-14  -5.61089761232288E-12    -5.57477740063269E-11    -5.5475491052705105E-11
1.9999999999999998E-5     1.5267962763171116E-13   8.454130570877398E-13    1.619958812647383E-11    2.4594095164622718E-11   5.0308917074590805E-11   6.159369041805443E-11    5.3299836114061016E-11   -3.5294790456004324E-14  -9.019158150608012E-12   -5.557770987450445E-11   -5.5836558968280624E-11
2.05E-5                   2.8761109633279987E-13   1.593352357846442E-12    2.050437424815563E-11    2.787454030249585E-11    5.4154068116004666E-11   6.197626548196344E-11    6.313379283139964E-11    -7.445961484073177E-14   -1.3710859216373716E-11  -4.979423725542467E-11   -4.9849523693334276E-11
2.1E-5                    5.29814717576642E-13     2.809775734938642E-12    2.217446591938645E-11    2.8588396249965124E-11   5.3900853524976455E-11   5.580182296897013E-11    6.689857724234034E-11    -1.478890586357299E-13   -1.9211045187021006E-11  -3.8188809625228444E-11  -3.753334762314338E-11
2.1499999999999997E-5     9.479443708469834E-13    4.588408827578191E-12    2.0529410591253067E-11   2.704588354443627E-11    4.714040600293452E-11    4.09836232294673E-11     6.35454266768378E-11     -2.7821078951920405E-13  -2.4124442367011674E-11  -2.170435392425115E-11   -2.1093305839886498E-11
2.2E-5                    1.6278638380652488E-12   7.0672947975046E-12      1.682913469841473E-11    2.3720040628669796E-11   3.32295169431213E-11     1.8196127967263875E-11   5.4733463089735626E-11   -5.044972154655377E-13   -2.6629453924858914E-11  -2.1732641098210845E-13  -6.217898848690376E-13
2.2499999999999998E-5     2.652244709502998E-12    1.03925913611662E-11     1.2738547135503244E-11   1.8523887176241753E-11   1.3393407828309724E-11   -1.1487790324092921E-11  4.1600577875811104E-11   -8.874827439639243E-13   -2.559698473005441E-11   2.7692405531851817E-11   2.6897448640856728E-11
2.3E-5                    4.047999774122415E-12    1.4383977865310834E-11   8.26132797367821E-12     1.0651775641486844E-11   -1.1274097954700044E-11  -4.856174364930966E-11   2.1470800860276297E-11   -1.5033144692008738E-12  -2.1245277892256228E-11  6.364944604435434E-11    6.449962193078137E-11
2.35E-5                   5.696955302293601E-12    1.8132784994632433E-11   1.80098947473033E-12     -8.794108279231618E-13   -4.0678530462480584E-11  -9.41436576469728E-11    -1.0759502505417748E-11  -2.4234851357981254E-12  -1.455511992288185E-11   1.0926841716096045E-10   1.1324921538102399E-10
2.4E-5                    7.267933628957443E-12    2.0153816505704136E-11   -7.819534315459005E-12   -1.6380345232347242E-11  -7.506408279017912E-11   -1.4861699723244715E-10  -5.7222423127910344E-11  -3.683594563146584E-12   -6.105636507532037E-12   1.6597520651790809E-10   1.7320854804616875E-10
2.45E-5                   8.28206577044383E-12     1.932424489182682E-11    -2.0153965964332952E-11  -3.5135677244125207E-11  -1.1508525222815393E-10  -2.1209453859717783E-10  -1.1396652815589852E-10  -5.238444570384889E-12   4.36161191551478E-12     2.3337184293432827E-10   2.440637762337165E-10
2.4999999999999998E-5     8.338571714709738E-12    1.5833129658784187E-11   -3.4106102889454567E-11  -5.600987879239855E-11   -1.6241940097722692E-10  -2.8480635424967803E-10  -1.7429995763958598E-10  -6.902820618426873E-12   1.741816694138412E-11    3.081104129226803E-10    3.2397898749268725E-10
2.55E-5                   7.32355230117701E-12     1.1001364282333104E-11   -4.948232118474028E-11   -7.835153182407788E-11   -2.187114832025795E-10   -3.6565592280929073E-10  -2.349272887836041E-10   -8.310001779829793E-12   3.341163036066515E-11    3.8576406712766966E-10   4.0909171349327415E-10
2.6E-5                    5.372535293697062E-12    5.886205593919507E-12    -6.726161287762167E-11   -1.0217663692846408E-10  -2.8343270062476513E-10  -4.5111309107032257E-10  -2.978389377190045E-10   -8.958468980741111E-12   5.247420490058016E-11    4.6375847040241025E-10   4.948937451490983E-10
2.65E-5                   2.6377398061600075E-12   -1.4184774712057508E-14  -8.849317868778003E-11   -1.2774882608815251E-10  -3.53373490462783E-10    -5.364838395578093E-10   -3.663420696711007E-10   -8.388478172258083E-12   7.45661119347751E-11     5.414338437861085E-10    5.778360118279017E-10
2.7E-5                    -8.055082295155543E-13   -8.619051147862226E-12   -1.1266900233931105E-10  -1.5540427234713737E-10  -4.238612034518573E-10   -6.173921882650338E-10   -4.404352406673464E-10   -6.413017007704425E-12   9.909346304971664E-11    6.173464223744037E-10    6.55558331904383E-10
2.7499999999999998E-5     -4.7867993507649015E-12  -2.1781698092627558E-11  -1.3672556962059398E-10  -1.8545274634520825E-10  -4.896448212074015E-10   -6.889492589039354E-10   -5.162427783441849E-10   -3.2277988833109342E-12  1.2454450866686979E-10   6.874554805836347E-10    7.255819706241668E-10
2.8E-5                    -8.976520813488121E-12   -3.9795275786432145E-11  -1.5622095736347074E-10  -2.1726531387561852E-10  -5.454917957358184E-10   -7.444613711423948E-10   -5.882316908613367E-10   7.203530364138441E-13    1.4877239902100585E-10   7.456461376723425E-10    7.832931740039894E-10
2.8499999999999998E-5     -1.3260344999126808E-11  -6.107259573777944E-11   -1.687130711564696E-10   -2.481164654557016E-10   -5.877510891176788E-10   -7.767450291310772E-10   -6.501909706728448E-10   5.0348837066681535E-12   1.6982492407222045E-10   7.846639707390645E-10    8.21032038616121E-10
2.9E-5                    -1.8143147854662847E-11  -8.312221910378846E-11   -1.7603637541042782E-10  -2.7372817822880195E-10  -6.152769607516174E-10   -7.808649689849818E-10   -6.944840273986807E-10   9.628115993301E-12       1.866772096393416E-10    7.965632467224223E-10    8.296373681411382E-10
2.95E-5                   -2.444240646537961E-11   -1.0399839576684252E-10  -1.82101655562127E-10    -2.9075481207174516E-10  -6.271333245172969E-10   -7.544769345204153E-10   -7.126736604445382E-10   1.4775054055592968E-11   1.993126490198342E-10    7.740364568090702E-10    8.010923316066836E-10
2.9999999999999997E-5     -3.240577364382116E-11   -1.2308972061918034E-10  -1.8801225352725584E-10  -2.9850254380914516E-10  -6.189245374864429E-10   -6.948996144926869E-10   -6.985569815786885E-10   2.09524153230002E-11     2.08007405010055E-10     7.121599394206236E-10    7.295095162032131E-10
3.05E-5                   -4.136532917525603E-11   -1.4060096151434831E-10  -1.9010651038066934E-10  -2.975927760262472E-10   -5.824056278817109E-10   -5.958190800962271E-10   -6.500945227149377E-10   2.8535238869538E-11      2.1224349837675753E-10   6.074386659677385E-10    6.098180240819598E-10
3.1E-5                    -5.0464990710953753E-11  -1.5623920446443764E-10  -1.8307272630143995E-10  -2.870522194773654E-10   -5.087725109268546E-10   -4.4662329618527274E-10  -5.669218655897985E-10   3.745164103313954E-11    2.100997666527565E-10    4.5403844805794974E-10   4.360460270003776E-10
3.15E-5                   -5.943103727081489E-11   -1.6848435965775992E-10  -1.6403757723591804E-10  -2.6317685118072665E-10  -3.9130214722286263E-10  -2.350994906224517E-10   -4.4566423860939783E-10  4.699688818698577E-11    1.98635020398016E-10     2.423909835345428E-10    2.0117599369998314E-10
3.2E-5                    -6.820367072999707E-11   -1.7526885206678474E-10  -1.3292067279975132E-10  -2.2094055320545235E-10  -2.252359481220239E-10   4.7876189687066244E-11   -2.787413489120926E-10   5.6069794563373345E-11   1.748624851798694E-10    -3.635919117005631E-11   -1.0089783937747934E-10
3.25E-5                   -7.603442058219254E-11   -1.7529104011862667E-10  -8.951322690029004E-11   -1.5591445063963985E-10  -7.448961992950828E-12   4.0433259345486236E-10   -5.861910790177194E-11   6.381868050930977E-11    1.365022265431128E-10    -3.8429119547381476E-10  -4.724249308408314E-10
3.2999999999999996E-5     -8.169202904776984E-11   -1.6842758769995932E-10  -3.151487849149563E-11   -6.550595729436444E-11   2.6235440169795006E-10   8.282466077046481E-10    2.169486857589718E-10    7.016563084206774E-11    8.217671100910364E-11    -7.956830018275686E-10   -9.10065897934427E-10
3.35E-5                   -8.475735566768675E-11   -1.5480378638899562E-10  4.3939511877669275E-11   4.994628233959229E-11    5.809688831893142E-10    1.3076868449978408E-9    5.440516951829551E-10    7.557575958230323E-11    1.1276310423770445E-11   -1.2612968107765293E-9   -1.4056939872552833E-9
3.4E-5                    -8.592492305904381E-11   -1.3368372585555469E-10  1.370557956068118E-10    1.8674956741154685E-10   9.431859890271107E-10    1.8280603935277875E-9    9.160157719079828E-10    8.013675419541971E-11    -7.622943024298162E-11   -1.7724203896147417E-9   -1.9485537454014976E-9
3.45E-5                   -8.52555464086797E-11    -1.03456885461037E-10    2.442076311263939E-10    3.3982556197366703E-10   1.3435011119234161E-9    2.3747107200167747E-9    1.3263191699906475E-9    8.284673887526458E-11    -1.7989945984154726E-10  -2.3207537704480042E-9   -2.5264047702544927E-9
3.5E-5                    -8.047281768855428E-11   -6.255849420399734E-11   3.6018407262707545E-10   5.062516491484542E-10    1.7754762531983038E-9    2.934016528573884E-9     1.7678904228170548E-9    8.19157152130088E-11     -2.9869479006403915E-10  -2.895076345610683E-9    -3.124620587861201E-9
3.5499999999999996E-5     -6.801439504410186E-11   -1.0041973086644413E-11  4.811932527644731E-10    6.864292600422076E-10    2.229132181346915E-9     3.4918955592831475E-9    2.2304097510068483E-9    7.584018820853918E-11    -4.3051525531630853E-10  -3.4778090481428572E-9   -3.7241069491003296E-9
3.6E-5                    -4.6152442530253105E-11  5.488618068815608E-11    6.051745158806868E-10    8.807645029246907E-10    2.6887855781448824E-9    4.029269249217156E-9     2.698821272859128E-9     6.4185979123089E-11      -5.716682735999616E-10   -4.044050612769337E-9    -4.299698481942478E-9
3.65E-5                   -1.6467691750685128E-11  1.3355143896971454E-10   7.296073569462611E-10    1.0848742274030007E-9    3.1331736100035953E-9    4.517274161448885E-9     3.1536783538447108E-9    4.7339743513182337E-11   -7.168921145770916E-10   -4.563752254155386E-9    -4.820382875057698E-9
3.7E-5                    1.839541989227313E-11    2.2742343950885874E-10   8.499820430834216E-10    1.2880959367821597E-9    3.5378783160357065E-9    4.9170596102321095E-9    3.5717678093244452E-9    2.5539027807129496E-11   -8.602143480098629E-10   -5.004898793815181E-9    -5.251401957898697E-9
3.75E-5                   5.829068978957516E-11    3.3657523519495175E-10   9.601345926052782E-10    1.476535678106346E-9     3.878146172370821E-9     5.185610963161481E-9     3.92649086107302E-9      -1.8821302440846036E-12  -9.958987162932775E-10   -5.334669639706282E-9    -5.5567170917392315E-9
3.7999999999999995E-5     1.0628450329661663E-10   4.583397196471076E-10    1.0524461501918437E-9    1.6375074296809486E-9    4.129654343838584E-9     5.2831674279797586E-9    4.189067554723738E-9     -3.64025801238534E-11    -1.118235801981078E-9    -5.518595152560013E-9    -5.700262070414857E-9
3.85E-5                   1.6539761162842658E-10   5.874297596729965E-10    1.117240584134853E-9     1.7614312461140843E-9    4.2669552425506844E-9    5.17658245203383E-9      4.3306500574506E-9       -7.951801298476889E-11   -1.2200313185691478E-9   -5.520753429260772E-9    -5.646107681018977E-9
3.9E-5                    2.345507966796271E-10    7.173626212723086E-10    1.14393190001489E-9      1.8401733182784026E-9    4.262214280740554E-9     4.837778066062799E-9     4.323620348353839E-9     -1.318753050217486E-10   -1.2913594036886622E-9   -5.306451618190401E-9    -5.3589743763006455E-9
3.95E-5                   3.078573773846023E-10    8.41940277686089E-10     1.1246431405106822E-9    1.864219515630321E-9     4.086608078614486E-9     4.241397718542438E-9     4.141316416342871E-9     -1.9288190305227989E-10  -1.3202269077488716E-9   -4.845259412651223E-9    -4.8059855914529525E-9
3.9999999999999996E-5     3.7820288019071864E-10   9.557499877812595E-10    1.0561496030640774E-9    1.821750816096659E-9     3.713715579627563E-9     3.3657112470028905E-9    3.758139848743671E-9     -2.6085549027567664E-10  -1.2948612528622325E-9   -4.112214304995653E-9    -3.959312954220543E-9
4.0499999999999995E-5     4.4186171001173245E-10   1.0535523696329588E-9    9.370216817690796E-10    1.7004498633812724E-9    3.122691172209979E-9     2.1966817488151747E-9    3.151924876053788E-9     -3.3337676977858063E-10  -1.2057587948058682E-9   -3.0879480515088164E-9   -2.7990449387343102E-9
4.1E-5                    4.99706674196248E-10     1.129105861482116E-9     7.636695676341217E-10    1.4904344935803267E-9    2.3003240835917458E-9    7.316039425890252E-10    2.307254938807175E-9     -4.0752476528067663E-10  -1.0463278717803361E-9   -1.7597804202047083E-9   -1.3159825545109366E-9
4.15E-5                   5.536652459618237E-10    1.1742582311312768E-9    5.31011139955865E-10     1.1861909673213565E-9    1.24213253772518E-9      -1.0204048076433195E-9   1.2171822610788541E-9    -4.799780792299084E-10   -8.127105588852095E-10   -1.243627181777982E-10   4.860024667580224E-10
4.2E-5                    6.017190766565522E-10    1.1790808344748145E-9    2.3707724104223137E-10   7.864324286350764E-10    -4.7985283327362335E-11  -3.0393690527049022E-9   -1.1624557039931268E-10  -5.471008100556028E-10   -5.03766276982738E-10    1.8091884305240093E-9    2.5887237930396942E-9
4.2499999999999996E-5     6.363477251291158E-10    1.1332517878371257E-9    -1.14181038121447E-10    2.9245719683568186E-10   -1.5594849624046333E-9   -5.292670285099825E-9    -1.6800023582532284E-9   -6.049602777740205E-10   -1.2120801144101595E-10  4.016886890241062E-9     4.9595608288885385E-9
4.2999999999999995E-5     6.480146513659612E-10    1.0279647986437502E-9    -5.142768577017166E-10   -2.9293315274736833E-10  -3.275562053511775E-9    -7.729827797862304E-9    -3.4465897227037074E-9   -6.491507130862626E-10   3.3053977603537867E-10   6.458602128540827E-9     7.551205310642193E-9
4.35E-5                   6.302799919502561E-10    8.571865601887236E-10    -9.527057153369834E-10   -9.640340475896096E-10   -5.169096059677978E-9    -1.0278962055086637E-8   -5.372478308747443E-9    -6.745948111368417E-10   8.44451503203616E-10     9.077668142361461E-9     1.0300301616668698E-8
4.4E-5                    5.815802902631396E-10    6.177206179483057E-10    -1.417699561181197E-9    -1.7088987722923274E-9   -7.195928695117423E-9    -1.2850025897694682E-8   -7.400388633355704E-9    -6.757465288413945E-10   1.4102663958760998E-9    1.180132574481247E-8     1.312609538243808E-8
4.45E-5                   5.022451912286575E-10    3.0869050048925857E-10   -1.8956278703651963E-9   -2.507088413697201E-9    -9.292005112467198E-9    -1.5342967000196584E-8   -9.462762102748594E-9    -6.473081578276095E-10   2.0131648906584752E-9    1.454233292646878E-8     1.5931188693434877E-8
4.4999999999999996E-5     3.9021517673534757E-10   -6.851768470491827E-11   -2.370293249305144E-9    -3.3310097804308394E-9   -1.137827214368438E-8    -1.7653744210034013E-8   -1.14832039274463E-8     -5.84987810070699E-10    2.6326891877990153E-9    1.720145202041827E-8     1.8604770360638812E-8
4.5499999999999995E-5     2.401577686954097E-10    -5.095547732951931E-10   -2.8224338685194714E-9   -4.150146477816993E-9    -1.3369383254854162E-8   -1.967417186369707E-8    -1.337671377325293E-8    -4.857431205156842E-10   3.2428624139850012E-9    1.966958265670599E-8     2.1026687835910647E-8
4.6E-5                    4.709297768109432E-11    -1.0063133209994653E-9   -3.22993210702617E-9     -4.934841639539074E-9    -1.51789543235013E-8     -2.1288654867280008E-8   -1.5051541333944983E-8   -3.4751904163295986E-10  3.813879497210041E-9     2.1829136128529603E-8    2.307094929736757E-8
4.65E-5                   -1.8904128172342234E-10  -1.5467164783083543E-9   -3.569390020866656E-9    -5.656574231932865E-9    -1.671918354307092E-8    -2.237368569690776E-8    -1.6412669509894412E-8   -1.6897006310402334E-10  4.314885341959651E-9     2.355631822014763E-8     2.4608693198527328E-8
4.7E-5                    -4.624109012761545E-10   -2.11498596968563E-9     -3.8182837297112904E-9   -6.284806346512238E-9    -1.7899058511667354E-8   -2.2803195549278448E-8   -1.736460419018372E-8    5.047007259622296E-11    4.716404294110431E-9     2.4726022500289442E-8    2.5511460861260027E-8
4.7499999999999996E-5     -7.645984441182174E-10   -2.6919269007913414E-9   -3.956030815846885E-9    -6.784135229068489E-9    -1.8625633835631268E-8   -2.2459099862709298E-8   -1.781361044795857E-8    3.10214504169216E-10     4.990955173426042E-9     2.521834766527844E-8     2.5655756895517904E-8
4.8E-5                    -1.0883072705194212E-9   -3.2553106200664655E-9   -3.963937200141067E-9    -7.1159853032802626E-9   -1.8808550440951124E-8   -2.1243883955566893E-8   -1.767263932797616E-8    6.080288985514752E-10    5.112041624579103E-9     2.492410778995848E-8     2.4929601182311253E-8
4.85E-5                   -1.4272639243177597E-9   -3.780845352564423E-9    -3.825827722088545E-9    -7.244861202236184E-9    -1.8365503712839523E-8   -1.909032110820416E-8    -1.6870101628838733E-8   9.3950969403196E-10      5.053555982809241E-9     2.3748667867572718E-8    2.3240517394194434E-8