% Model:              Untitled.mph
% Version:            COMSOL 6.0.0.405
% Date:               Jul 17 2025, 06:57
% Dimension:          1
% Nodes:              401
% Expressions:        11
% Description:        Point graph
% Time (s)                Displacement field, Y component Displacement field, Y component Displacement field, Y component Displacement field, Y component Displacement field, Y component Displacement field, Y component Displacement field, Y component Displacement field, Y component Displacement field, Y component Displacement field, Y component Displacement field, Y component
0                         -1.2429398089520236E-36  -1.731984135610586E-34   -3.520605623652996E-33   -5.643198774771778E-32   -8.552362232956098E-31   -5.096760912231758E-31   1.1226077997423318E-35   3.334797912598085E-30    1.3042526756570654E-29   2.2893510819548283E-29   3.5661211274424274E-29
5.0E-7                    1.608319933751589E-28    -9.13324158870104E-26    -6.27120907977519E-25    -3.765173695120619E-23   -5.451846584175437E-22   7.880171297490614E-23    -1.3322644111016094E-27  1.1885970070272834E-21   2.092174778828775E-22    -5.18044772087542E-22    6.557049812689276E-22
1.0E-6                    -4.109380948674184E-29   1.0402000823492235E-24   1.1106815942805366E-23   3.700527549349769E-22    5.212750640653607E-21    1.1802652493127273E-22   -2.0652121763625104E-27  -1.2946468866502302E-20  -2.5888596468542528E-20  -4.598404248928865E-20   -9.069064269997323E-20
1.5E-6                    -1.2242236442898967E-27  -3.186705042387853E-24   -4.382710650910216E-23   -8.142942719613577E-22   -1.3495541146637818E-20  -1.2147054268487602E-21  2.952367482156568E-26    4.1544804473471156E-20   1.502291906905519E-19    3.0198317327040872E-19   5.453503402773342E-19
2.0E-6                    7.091930037589182E-27    6.843026188754318E-25    5.401414059718963E-23    -1.047654635619864E-21   1.1729657381331846E-21   2.2898666536934642E-21   -1.3928244242496772E-25  -3.9499995494638954E-20  -3.550374743613983E-19   -7.290279782781392E-19   -1.1440375180308614E-18
2.4999999999999998E-6     -2.3562451560950463E-26  1.1570201368958621E-23   5.758116288143941E-23    3.172649242479461E-21    2.932565031517893E-20    -2.7109251841028952E-21  3.6225944163145335E-25   -9.456960512006657E-21   1.4135533411916103E-19   3.1073297865721994E-19   1.9579420570446928E-20
3.0E-6                    4.7713533458361456E-26   -2.1496468797159353E-24  -1.136578781933603E-22   1.1291825065938204E-20   3.50130512069732E-20     1.3872649878922062E-20   -3.474388881238801E-25   -1.0223619368346718E-19  9.787828099480178E-19    2.1595576127839975E-18   3.421744197312431E-18
3.5E-6                    -1.4730008348764216E-26  -4.140110734787342E-23   -7.571063240688982E-23   -1.6195248356925516E-20  -5.256393083744184E-20   -1.2151628700229149E-20  -9.049243270149275E-25   -3.281549412186759E-19   -1.9397978696211107E-18  -5.105405837527746E-18   -3.066731907863869E-18
4.0E-6                    -2.5772925155910665E-25  -2.6031842533426733E-23  -5.473618872507509E-22   -7.934712731298709E-20   -4.711844931611433E-19   -4.200834298422912E-20   3.389096607600522E-24    2.2441381848134275E-18   4.766129954093131E-19    3.411195080700598E-19    4.466905526026636E-18
4.5E-6                    5.093438397539698E-25    1.4245504226892592E-22   9.831250362963026E-22    6.899959951782532E-20    2.8133708204192996E-19   1.1543272430196856E-20   -1.2378830323076405E-24  1.8849733967047556E-18   6.79901113550937E-18     2.2498152659584332E-17   -1.1207848508531187E-17
4.9999999999999996E-6     8.089721389937316E-25    1.7866092283165943E-22   4.667133806790588E-21    3.7251377462715626E-19   2.371707562974325E-18    -1.5854063353185345E-19  -1.3425682902779706E-23  -1.1821802557028785E-17  -9.211567607192493E-18   -8.987579373373744E-18   -6.873262378208658E-17
5.5E-6                    -2.553272332878699E-24   -1.9460100386665637E-22  -5.506009740466836E-21   -1.2865870267038084E-19  -1.0950812631230979E-18  4.70724341779215E-19     9.392620550137876E-24    -1.4128714811125053E-17  -3.3304880483028416E-17  -9.198730296812571E-17   1.3486033591556917E-16
6.0E-6                    -3.3884720958110006E-24  -7.51764880679908E-22    -2.451796498102862E-20   -1.3126702536368073E-18  -8.488765256512812E-18   1.857917782959163E-18    6.612710380389265E-23    3.602866872648666E-17    3.699835089084132E-17    -1.9333523321481655E-17  4.339968865964404E-16
6.5E-6                    1.0698744757474497E-23   -1.2784399346350507E-21  2.5486009214702977E-20   -2.3817811990410733E-19  3.627675835177391E-18    -2.3509382468731115E-18  -5.4580999765752806E-24  8.164824181417818E-17    2.0669804540132484E-16   3.565876428574724E-16    -4.381208373076958E-16
7.0E-6                    1.4587506266645408E-23   1.7015970467427602E-21   1.0944728211484474E-19   3.259390593808661E-18    2.5252281712092497E-17   -1.1883409903083222E-17  -3.8071473850850684E-22  -3.461414854146244E-17   -1.7101674623884898E-17  4.64652350787482E-16     -1.7817368445518456E-15
7.499999999999999E-6      -4.726813232221413E-23   1.2026522648101411E-20   -1.2641034487631047E-19  1.7339469799361451E-18   -1.8686435003386536E-17  -1.2541739001876801E-18  -2.7316169650011485E-22  -2.7439117506769644E-16  -9.246215247549366E-16   -6.918238703450351E-16   7.710352600101594E-16
8.0E-6                    -5.389851741888988E-23   4.1519364886064705E-21   -4.737568264856609E-19   -4.761890599271407E-18   -7.909442215681907E-17   4.3355554031407044E-17   1.925399165856521E-21    -1.9048394222417002E-16  -5.705706989162554E-16   -2.0069646396905797E-15  6.357671277903117E-15
8.5E-6                    2.3506153586951535E-22   -6.48897989935447E-20    5.683677771656724E-19    3.9510166184754405E-19   9.717243345509177E-17    3.5108925729463964E-17   2.826915164239447E-21    5.23422512417017E-16     3.1461002281531784E-15   5.990083374620839E-16    2.9412451539935637E-15
9.0E-6                    2.3073585279687023E-22   -7.79252587470896E-20    2.1147133709434664E-18   4.010020381176748E-18    3.132229458630513E-16    -1.5610987078173866E-16  -7.606538941000666E-21   1.2004289450678247E-15   4.971033561508924E-15    7.959495530537094E-15    -1.126598810530586E-14
9.499999999999999E-6      -1.2304620260730655E-21  2.6384758395590053E-19   -1.841256838758968E-18   -4.105441837430739E-17   -3.5750042920690973E-16  -3.5070236305062563E-16  -1.8063825093003637E-20  6.818529815071591E-16    -4.16021912036582E-15    1.0661535485385187E-14   -7.721083900070562E-15
9.999999999999999E-6      -1.6058073942483366E-21  5.589572907367098E-19    -9.285740574709757E-18   -4.7553556423632567E-17  -1.4377731712004873E-15  -5.649966702516594E-18   2.146553696042544E-20    -9.874110711981476E-16   -1.5079294251928806E-14  -2.1552284916185635E-15  3.165431999663105E-14
1.05E-5                   5.440434374894033E-21    -8.151410071734123E-19   1.5455164083522343E-18   1.8885684592237273E-16   3.2437771316706505E-16   5.955016036817318E-16    8.808473172461336E-20    -1.8595588952346688E-15  2.21570267425656E-15     -1.476015224327752E-14   6.371477736977465E-14
1.1E-5                    1.1418129320051526E-20   -3.054938843434664E-18   3.319397147842532E-17    3.715208200311292E-16    4.897044611266732E-15    -7.69096010430462E-16    -1.927638373363214E-20   1.5940041853918792E-15   5.1582094418030225E-14   2.593136305022592E-14    5.0379457585679586E-14
1.15E-5                   -1.7037172277867197E-20  9.514603888059038E-19    1.892327901304948E-17    -4.078934316295501E-16   2.403474975868266E-15    -5.507806369288768E-15   -3.1685118848088577E-19  1.5135820997716015E-14   7.804516209653588E-14    1.4693480423872908E-13   6.582152891372681E-14
1.2E-5                    -6.72163973985908E-20    1.2372785020923686E-17   -8.941633448674546E-17   -1.754992339882572E-15   -1.3631426152418042E-14  -9.517005029353112E-15   -1.4646608246892712E-19  4.344943587611251E-14    3.6261230120858124E-14   2.6215936831073994E-13   2.2178819624606485E-13
1.2499999999999999E-5     4.9193023814886004E-21   5.825247496994657E-18    -1.413395908905432E-16   -6.889926380635583E-16   -2.181116570051371E-14   -9.079314977947472E-15   9.327838106618363E-19    7.633219178046849E-14    4.910216019603601E-15    2.77360924717121E-13     5.362345425079121E-13
1.3E-5                    2.611691695184815E-19    -4.0034123093672926E-17  9.576298585200533E-17    3.818793798527969E-15    9.215192268219472E-15    -1.947355507887093E-14   1.3752621385388562E-18   9.276248449864676E-14    1.880032740797419E-13    4.1174632261360043E-13   1.0825268274780566E-12
1.35E-5                   2.180331656466392E-19    -5.78788291202836E-17    4.2779880994769945E-16   4.665373288331619E-15    5.014200856870352E-14    -7.46833469966738E-14    -9.36372914777239E-19    1.3769333418203596E-13   7.549248097271673E-13    1.2205154555190277E-12   2.146161936060534E-12
1.4E-5                    -7.690154462927734E-19   6.562970096486036E-17    1.3398820511093838E-16   -6.636128203332316E-15   9.242385802510602E-16    -1.8696220684769467E-13  -3.560259325210706E-18   4.139621232659174E-13    1.6562904453808476E-12   2.9635693262914237E-12   3.9079368838641254E-12
1.45E-5                   -1.7337730497070889E-18  2.1240082781552568E-16   -1.032786780883359E-15   -2.1530385464927384E-14  -1.642094763242366E-13   -3.334793941276772E-13   1.1810060094473605E-18   1.1677243311148893E-12   2.6829877857142427E-12   5.215273860816183E-12    6.400338408242603E-12
1.4999999999999999E-5     7.49482783314809E-20     -3.94129042180203E-17    -1.8771110161712254E-15  -1.6488514360455037E-14  -2.6934040520566006E-13  -5.616501719865519E-13   1.6995154677435003E-17   2.3670977858661598E-12   4.0279685781646895E-12   7.919452813851974E-12    1.0698230341849358E-11
1.55E-5                   4.104653010291982E-18    -7.32710744919579E-16    -8.924215912843519E-16   7.448160851691719E-15    -1.3606466468308877E-13  -1.1252693271826046E-12  3.4494608527238243E-17   3.757918901557645E-12    7.0406794175659456E-12   1.2929324507855263E-11   1.9651587091903614E-11
1.6E-5                    1.4566747563331318E-18   -8.68881968347499E-16    9.531269485993297E-16    3.760464158360549E-16    9.893843897304375E-15    -2.4066557376629923E-12  3.949673293822464E-17    5.720876518112894E-12    1.3926694229324293E-11   2.3354045755712163E-11   3.54936971575993E-11
1.6499999999999998E-5     -1.6785850130504343E-17  3.7367662155941206E-16   -7.257924911643545E-16   -8.26897196041089E-14    -4.149912620797764E-13   -4.638164804387053E-12   4.8740518201339306E-17   9.934810075355547E-12    2.5710920612462302E-11   4.0447963167729526E-11   5.640689591038114E-11
1.7E-5                    -4.043309715189039E-17   1.089042882696267E-15    -1.0896062550378019E-14  -2.1032232943623325E-13  -1.6058218487500345E-12  -7.89591081812787E-12    1.6179445738078152E-16   1.8230943905464733E-11   4.048573475166388E-11    6.159661614237955E-11    7.763819026790606E-11
1.75E-5                   -4.4759386572225094E-17  -2.6937643339093132E-15  -3.097506996005733E-14   -3.286601966617535E-13   -2.8934184680190124E-12  -1.2641617991287998E-11  5.701971647285172E-16    3.0258463628423075E-11   5.488376981196122E-11    8.203790147727338E-11    9.664076068232208E-11
1.8E-5                    -4.5787648305244165E-17  -1.1258819508948023E-14  -5.742935200843394E-14   -5.109344032575144E-13   -3.6337671985746686E-12  -2.006579150226281E-11   1.4536828978205925E-15   4.3079838651966735E-11   6.75905763964953E-11     9.81109793574763E-11     1.1411398054675888E-10
1.85E-5                   -1.5807512615227844E-16  -1.872282663832881E-14   -8.805469086455206E-14   -9.534838456371343E-13   -4.712710296463227E-12   -3.10749971386885E-11    2.88988050239292E-15     5.3933768873907017E-11   7.981554812006071E-11    1.0830177936840185E-10   1.2827597204157148E-10
1.8999999999999998E-5     -5.545415032029578E-16   -2.360240019118443E-14   -1.4235532488018275E-13  -1.7698251846097685E-12  -8.492647113563443E-12   -4.435287842008745E-11   5.255187703602157E-15    6.27722335386154E-11     9.142705384525921E-11    1.1205159279079014E-10   1.3183706823520828E-10
1.95E-5                   -1.3435049064462589E-15  -4.3188464181893694E-14  -2.870336832213102E-13   -2.98205872834396E-12    -1.6651536393556683E-11  -5.6024616944521947E-11  1.0468356709796221E-14   7.096769389910042E-11    9.846459723328596E-11    1.0897256905215833E-10   1.1898326898126307E-10
1.9999999999999998E-5     -2.6184856020826224E-15  -1.0785881856197411E-13  -6.258490938137432E-13   -4.936805016904178E-12   -2.826270554542004E-11   -6.249304537038542E-11   2.3254715710860887E-14   7.794336675346634E-11    9.634576008908787E-11    9.918266019659635E-11    9.379682454078276E-11
2.05E-5                   -4.9631381629175594E-15  -2.37237292056006E-13    -1.2335415007172044E-12  -8.524433005464139E-12   -4.0397008790238974E-11  -6.376765697617034E-11   5.0633254313611825E-14   8.044405374148394E-11    8.446938990743206E-11    8.311231129254299E-11    6.682655711123745E-11
2.1E-5                    -1.0248651876003513E-14  -4.4108285073476353E-13  -2.1270648801524907E-12  -1.4471254487530352E-11  -5.040211434612601E-11   -6.27284943977839E-11    1.0015312746759833E-13   7.524517303925644E-11    6.574069679485637E-11    6.012361060166008E-11    4.2110907502886635E-11
2.1499999999999997E-5     -2.206063288226467E-14   -7.665806222002685E-13   -3.413813984435606E-12   -2.230468863066879E-11   -5.730694618039553E-11   -6.051768530114113E-11   1.827623730478554E-13    6.153113757065907E-11    4.2063348028046614E-11   2.7316903323551113E-11   1.03833536327054E-11
2.2E-5                    -4.552262417740601E-14   -1.333403131228032E-12   -5.519664273712041E-12   -3.048317399876735E-11   -6.15171213992173E-11    -5.404733696490664E-11   3.256415773651181E-13    4.03551136803582E-11     1.167850010467063E-11    -2.0131141627502733E-11  -4.358126550428099E-11
2.2499999999999998E-5     -8.790794098032846E-14   -2.287693504847186E-12   -9.080439907695002E-12   -3.777169474769957E-11   -6.386108655525239E-11   -3.91754355015234E-11    5.859568427537924E-13    1.2513126948789138E-11   -2.992808784320231E-11   -8.707704492270485E-11   -1.285473505581299E-10
2.3E-5                    -1.6242427972653185E-13  -3.71882754890748E-12    -1.4278425043342893E-11  -4.402199982820014E-11   -6.458931092313431E-11   -1.478643785020197E-11   1.0431022470353438E-12   -2.2867467407111733E-11  -8.811764594843452E-11   -1.7591593745251838E-10  -2.422771224269329E-10
2.35E-5                   -2.950247173190675E-13   -5.640627712630795E-12   -2.0190507871684104E-11  -4.928372160023312E-11   -6.220165304291187E-11   1.830319909079133E-11    1.7651911056946138E-12   -6.83541720071937E-11    -1.6696393774468517E-10  -2.8509950859442903E-10  -3.766824933853441E-10
2.4E-5                    -5.286345324120923E-13   -8.002183946975528E-12   -2.507868216761529E-11   -5.2689911126678815E-11  -5.29581966470208E-11    6.110212350277826E-11    2.7871650523074697E-12   -1.2720647276868635E-10  -2.6613611986870825E-10  -4.1016787829624504E-10  -5.245680714868801E-10
2.45E-5                   -9.180047732062232E-13   -1.0593385226305836E-11  -2.763713813348184E-11   -5.275178319432525E-11   -3.243978203082349E-11   1.1571053389921481E-10   4.134087914859525E-12    -2.0175269131323059E-10  -3.7930269256943884E-10  -5.467242022840076E-10   -6.816716463756966E-10
2.4999999999999998E-5     -1.5176238800522348E-12  -1.2923099145582288E-11  -2.7924529165910187E-11  -4.827113075812428E-11   1.5825941366554296E-12   1.8070285314847242E-10   5.8410853066822984E-12   -2.916962130416359E-10   -4.978797021283479E-10   -6.924023126155137E-10   -8.453207621068036E-10
2.55E-5                   -2.374415503248772E-12   -1.4375831060169028E-11  -2.6894849117242533E-11  -3.8274219131509865E-11  4.790273959003467E-11    2.508535574589569E-10    7.869063347632359E-12    -3.932422133640692E-10   -6.179827092867187E-10   -8.457533327739528E-10   -1.0134547550488697E-9
2.6E-5                    -3.524318674875433E-12   -1.4650468388007456E-11  -2.5103211439155594E-11  -2.1480303746196613E-11  1.0380592069821577E-10   3.2335678439585345E-10   9.931130719882E-12       -5.001372517393535E-10   -7.425861843515669E-10   -1.0036198569551561E-9   -1.1840611552637064E-9
2.65E-5                   -4.962815437788509E-12   -1.3935617700087795E-11  -2.206182087518817E-11   3.2117664650295023E-12   1.6801961350516495E-10   4.0181478984322846E-10   1.1440377860419608E-11   -6.068247308397132E-10   -8.750987038135409E-10   -1.1600411295337509E-9   -1.3531858181031133E-9
2.7E-5                    -6.5674360096797235E-12  -1.2455042982518657E-11  -1.660775887863968E-11   3.582325900972813E-11    2.413484280567279E-10    4.91149597700137E-10     1.1766626488644997E-11   -7.113634542704596E-10   -1.0111304679190316E-9   -1.3070910432002168E-9   -1.512506317737433E-9
2.7499999999999998E-5     -8.028617067897886E-12   -9.928087340946039E-12   -7.33691722631538E-12    7.5758997904401E-11      3.2452657918209067E-10   5.889795293152529E-10    1.0655388421202588E-11   -8.144522138865037E-10   -1.137970409600845E-9    -1.4355059801327722E-9   -1.6490806780511488E-9
2.8E-5                    -8.913272805320677E-12   -5.739888117308625E-12   7.280586878301097E-12    1.2310460467605445E-10   4.159784213017557E-10    6.839360389449991E-10    8.385015544131746E-12    -9.144876076085293E-10   -1.241598450693001E-9    -1.5341651830005238E-9   -1.747241886029891E-9
2.8499999999999998E-5     -8.904227886706006E-12   4.267174968544228E-13    2.8254742414240745E-11   1.7841523830803104E-10   5.117800053600256E-10    7.628416429121769E-10    5.4325045143651666E-12   -1.0037653432943263E-9   -1.3120280783719909E-9   -1.5899994639031408E-9   -1.790598924754796E-9
2.9E-5                    -8.043652116810908E-12   8.536067607031029E-12    5.473145654378269E-11    2.4098155485734E-10      6.071914679035675E-10    8.187924345651607E-10    1.9337036615512346E-12   -1.0700881155287665E-9   -1.341753386850586E-9    -1.5895289581730055E-9   -1.7635172895545712E-9
2.95E-5                   -6.70253228116342E-12    1.88433174319154E-11     8.369963858988665E-11    3.0846573152879777E-10   6.97622257551792E-10     8.52044293989759E-10     -2.543508079451697E-12   -1.101483301889636E-9    -1.3220066216775484E-9   -1.52056703517375E-9     -1.6523056330165646E-9
2.9999999999999997E-5     -5.20136851863523E-12    3.2040167763761385E-11   1.1218828916599305E-10   3.790972881312554E-10    7.782171053324187E-10    8.633348087078236E-10    -8.719410973963816E-12   -1.0885495734208998E-9   -1.2424031608969163E-9   -1.3718172741954882E-9   -1.4449061680066407E-9
3.05E-5                   -3.3686864995983847E-12  4.8292730423461926E-11   1.4024936239960781E-10   4.5332424729660026E-10   8.430659376811494E-10    8.465091074257956E-10    -1.7096020363198064E-11  -1.0230897940163299E-9   -1.092264451211582E-9    -1.130643972650371E-9    -1.1283516469031626E-9
3.1E-5                    -4.583934029201018E-13   6.645458489547931E-11    1.711779272486465E-10    5.31552576298212E-10     8.850956543715882E-10    7.877040230071251E-10    -2.7614137376752615E-11  -8.964212553024222E-10   -8.599630412439137E-10   -7.8204080130253E-10     -6.867973714057032E-10
3.15E-5                   4.419412760865439E-12    8.491619079601523E-11    2.080479232314626E-10    6.096355387123932E-10    8.96576378230936E-10     6.715448836630825E-10    -3.9640710158202726E-11  -6.99916389160416E-10    -5.32364182101196E-10    -3.111293487891524E-10   -1.0412176190562989E-10
3.2E-5                    1.1636511756806363E-11   1.0330668159888731E-10   2.4992247427422125E-10   6.776694740559171E-10    8.695709045104271E-10    4.878224682074173E-10    -5.226305027916114E-11   -4.2664031237869855E-10  -9.835705368365397E-11   2.9195773543909186E-10   6.292471716857649E-10
3.25E-5                   2.067596269716063E-11    1.227496063450975E-10    2.916767457731293E-10    7.24691500504501E-10     7.959543668597177E-10    2.329137201820806E-10    -6.479171004511622E-11   -7.196376252517332E-11   4.455731233517682E-10    1.0280936470426536E-9    1.5105177923214E-9
3.2999999999999996E-5     3.042938763095716E-11    1.4406343335512337E-10   3.2750943685169757E-10   7.448268136802685E-10    6.671949934041597E-10    -9.29031170136534E-11    -7.721468832886469E-11   3.6679766404693527E-10   1.0937574537292935E-9    1.8880129564184998E-9    2.5241538965041633E-9
3.35E-5                   4.005915278878245E-11    1.6606858752722186E-10   3.545389629999066E-10    7.378502581340825E-10    4.74496704940351E-10     -4.875644357845424E-10   -9.017425803114076E-11   8.898956158322264E-10    1.8349664681236271E-9    2.853503483141522E-9     3.6459028546864055E-9
3.4E-5                    4.9786747213473266E-11   1.8612033907066637E-10   3.7322046592738856E-10   7.029380918390628E-10    2.0987140003537593E-10   -9.471660574828662E-10   -1.0425839468537832E-10  1.4929787258427955E-9    2.655963239564009E-9     3.899739752754478E-9     4.84676222837581E-9
3.45E-5                   6.083998276056107E-11    2.0205122647797415E-10   3.845645738991423E-10    6.322683059062297E-10    -1.3203833471748873E-10  -1.4652696951749156E-9   -1.190558422548991E-10   2.1648885348208523E-9    3.540470689997786E-9     4.997826541767177E-9     6.0941526424982276E-9
3.5E-5                    7.437966176265233E-11    2.1284319569151154E-10   3.867245682135508E-10    5.116453153375939E-10    -5.524705054619277E-10   -2.0320991937986185E-9   -1.3284398481673343E-10  2.887744155270766E-9     4.465263199349897E-9     6.116028250005901E-9     7.350893503829646E-9
3.5499999999999996E-5     9.018172756810744E-11    2.171003112545984E-10    3.737034239120492E-10    3.277582352677317E-10    -1.0483313905993679E-9   -2.6330101475055718E-9   -1.4331321065491679E-10  3.639231735892811E-9     5.398384341301561E-9     7.218077727979086E-9     8.573376809030537E-9
3.6E-5                    1.0625288549643273E-10   2.1142365553243176E-10   3.37305953768835E-10     7.497465689849306E-11    -1.6128794503587993E-9   -3.247344798470476E-9    -1.4871039584236928E-10  4.394411479504738E-9     6.301368673553039E-9     8.259468360903176E-9     9.709500332327529E-9
3.65E-5                   1.1984201533281098E-10   1.9110724977397238E-10   2.7112041499356736E-10   -2.4404881988221286E-10  -2.2359057532182465E-9   -3.849649081503549E-9    -1.4830031966245305E-10  5.125022400888093E-9     7.132379482985355E-9     9.185470350483389E-9     1.0697152919994761E-8
3.7E-5                    1.2904145920321785E-10   1.5278454804239978E-10   1.7348572523392424E-10   -6.229289907171815E-10   -2.9025444818694045E-9   -4.41242057008543E-9     -1.4169654242533947E-10  5.797379740240021E-9     7.846494146078164E-9     9.933469650672852E-9     1.1464812273313395E-8
3.75E-5                   1.3359008371275887E-10   9.625701584769482E-11    4.6770504633522823E-11   -1.056015305245508E-9    -3.591358188619862E-9    -4.907079749958411E-9    -1.27757388936583E-10    6.371544862918419E-9     8.393512502026697E-9     1.0437860243292726E-8    1.1935097741479515E-8
3.7999999999999995E-5     1.3420646931442256E-10   2.3547384350953936E-11   -1.0662810243404177E-10  -1.5390070473281747E-9   -4.273244707110465E-9    -5.301952850918664E-9    -1.0417761201496517E-10  6.802841764561396E-9     8.717412219177597E-9     1.0633732703939508E-8    1.2030342893706303E-8
3.85E-5                   1.3111052878821931E-10   -6.382939733815089E-11   -2.87867553930871E-10    -2.0662015770523954E-9   -4.912201215565902E-9    -5.560114209816376E-9    -6.819291202863853E-11   7.044534997935519E-9     8.760344822850068E-9     1.0458299212494578E-8    1.1678270329020314E-8
3.9E-5                    1.2306073203774102E-10   -1.6657371632510705E-10  -5.012217278030151E-10   -2.6273118790319437E-9   -5.46762940023138E-9     -5.640558534098681E-9    -1.7732432148337803E-11  7.050430235384624E-9     8.469232587500885E-9     9.8522042561605E-9       1.081612087362461E-8
3.95E-5                   1.0765901668601306E-10   -2.865809934801044E-10   -7.497845050868936E-10   -3.206092912785311E-9    -5.8968938191697286E-9   -5.502830211389012E-9    4.796527247768903E-11    6.777557842806104E-9     7.800125420378323E-9     8.762537955886136E-9     9.392562655672885E-9
3.9999999999999996E-5     8.248116209564278E-11    -4.2423790943667265E-10  -1.0310360481410764E-9   -3.780726153944773E-9    -6.1570379507849926E-9   -5.11203255619535E-9     1.2855490474492492E-10   6.189103744694894E-9     6.7178880033307875E-9    7.146960410023811E-9     7.368136703967166E-9
4.0499999999999995E-5     4.5933347620565924E-11   -5.767220719472123E-10   -1.3357323516600736E-9   -4.324418065264766E-9    -6.2056186767253895E-9   -4.441097462944665E-9    2.230209174582484E-10    5.256319011590879E-9     5.194061903035049E-9     4.977440548944136E-9     4.716339180525555E-9
4.1E-5                    -2.813188246429615E-12   -7.389080659589979E-10   -1.6502405230638267E-9   -4.8051922586656325E-9   -6.001488552191086E-9    -3.4698732232261E-9      3.29700006745112E-10     3.9584697423612664E-9    3.2080929617498205E-9    2.2432363059715296E-9    1.4274276978410166E-9
4.15E-5                   -6.441749245823351E-11   -9.057509644069272E-10   -1.959762236380908E-9    -5.1856275935296796E-9   -5.50631551117282E-9     -2.183771723838105E-9    4.4595269280653354E-10   2.2826987934229108E-9    7.536213431264175E-10    -1.046089420576192E-9    -2.484940592284858E-9
4.2E-5                    -1.395563896885445E-10   -1.0734347924339909E-9   -2.250108526813964E-9    -5.424311936353921E-9    -4.6869032309468E-9      -5.757532373691453E-10   5.68096703383967E-10     2.268205385785745E-10    -2.154055755994129E-9    -4.856966883162181E-9    -6.976719097990353E-9
4.2499999999999996E-5     -2.2828710717663226E-10  -1.2377937349467576E-9   -2.5076535332500997E-9   -5.479702647303469E-9    -3.517703782120143E-9    1.3475286027080904E-9    6.919255456009126E-10    -2.1950491762615356E-9   -5.474345990423859E-9    -9.128029775109062E-9    -1.1969320891576386E-8
4.2999999999999995E-5     -3.291975468996083E-10   -1.3912927782198348E-9   -2.7184207572870894E-9   -5.314723540190556E-9    -1.982917492606326E-9    3.5595704253058352E-9    8.1337828654911E-10      -4.947643213359695E-9    -9.142007055891706E-9    -1.3767910457406516E-8   -1.7349442107500347E-8
4.35E-5                   -4.393290332555994E-10   -1.5214349019053674E-9   -2.8671543408098858E-9   -4.899224372822153E-9    -7.836200417794451E-11   6.013127055329261E-9     9.28617587006161E-10     -7.973265448845369E-9    -1.3068495250579898E-8   -1.86558082176417E-8     -2.297141624395238E-8
4.4E-5                    -5.550684235197103E-10   -1.6123969590285798E-9   -2.936732520655086E-9    -4.2089638988943556E-9   2.1859160093982936E-9    8.644504491592453E-9     1.0332815379754498E-9    -1.1193303081431773E-8   -1.714204987110621E-8    -2.3644265955623456E-8   -2.8660405394998416E-8
4.45E-5                   -6.730844958707278E-10   -1.648998466967129E-9    -2.9082979145034173E-9   -3.2228558956137604E-9   4.781793186305611E-9     1.1377261129402827E-8    1.121458636829894E-9     -1.4510346649813068E-8   -2.1228721683710286E-8   -2.8562691576116857E-8   -3.4216394299900565E-8
4.4999999999999996E-5     -7.902345977790588E-10   -1.6201090932567155E-9   -2.7625224024317956E-9   -1.9220078520350262E-9   7.659259488637024E-9     1.4121240244682134E-8    1.1852121672026322E-9    -1.7810271543794003E-8   -2.5176733089371183E-8   -3.3221135698576523E-8   -3.941957699710544E-8
4.5499999999999995E-5     -9.02446049492801E-10    -1.5190267730723628E-9   -2.4816862663724094E-9   -2.930614573562387E-10   1.0744915308571749E-8    1.6769722289477108E-8    1.2150496719824823E-9    -2.0964828891906305E-8   -2.8822529941451364E-8   -3.74149880453521E-8     -4.4036492190777366E-8
4.6E-5                    -1.0037120808462384E-9   -1.3409153269187907E-9   -2.0513256196674723E-9   1.664587730772987E-9     1.3943572102934185E-8    1.9200103396652645E-8    1.2010653724537419E-9    -2.383473711772451E-8    -3.199489095620219E-8    -4.093092726046034E-8    -4.782568001308273E-8
4.65E-5                   -1.0862812118497732E-9   -1.0798291752630847E-9   -1.4605768003663243E-9   3.93101676874109E-9      1.7141236259608994E-8    2.1279298961386995E-8    1.1341432630476709E-9    -2.6272890301057563E-8   -3.45168011060296E-8     -4.3553615101943936E-8   -5.054331900845485E-8
4.7E-5                    -1.1419618545630223E-9   -7.279698561036708E-10   -7.020338842158817E-10   6.461890894387526E-9     2.020724149660276E-8     2.287102541469802E-8     1.0067468598260587E-9    -2.8128305083972908E-8   -3.6209092560527097E-8   -4.507293710222592E-8    -5.195112797298704E-8
4.7499999999999996E-5     -1.1634481026434512E-9   -2.777250129253761E-10   2.2712855433182676E-10   9.190984299925571E-9     2.299541055050723E-8     2.3842743473505372E-8    8.131920969297218E-10    -2.9252149998253E-8      -3.689925163740489E-8    -4.529254804097282E-8    -5.182790470618237E-8
4.8E-5                    -1.1446363476383968E-9   2.7505516363081524E-10   1.322356623776182E-9     1.203710335420475E-8     2.5346346345822104E-8    2.407186620380765E-8     5.495951194407516E-10    -2.950593163115011E-8    -3.643374847013455E-8    -4.4040269135805175E-8   -4.998310282164287E-8
4.85E-5                   -1.0798534530384203E-9   9.28436912990364E-10     2.569092981118624E-9     1.4909730560639278E-8    2.7092853799240634E-8    2.345081482173347E-8     2.1377695108862735E-10   -2.876985607955749E-8    -3.468877492504463E-8    -4.117930458710145E-8    -4.626930071606246E-8