% Model:              Untitled.mph
% Version:            COMSOL 6.0.0.405
% Date:               Jul 15 2025, 12:27
% Dimension:          1
% Nodes:              401
% Expressions:        11
% Description:        Point graph
% Time (s)                Displacement field, Y component Displacement field, Y component Displacement field, Y component Displacement field, Y component Displacement field, Y component Displacement field, Y component Displacement field, Y component Displacement field, Y component Displacement field, Y component Displacement field, Y component Displacement field, Y component
0                         -1.2180161821461462E-31  -9.491807926166873E-32   -1.0846040369904869E-32  -7.56357075274795E-33    -9.642563829286236E-34   -8.300651197945175E-35   -2.1320549483718131E-35  1.4064676502647143E-29   5.150380965216828E-30    4.5702061138165406E-30   1.8478770716522195E-30
5.0E-7                    -1.5972806770168028E-23  -2.3177067014310867E-23  4.088075651134157E-25    -7.567505953695675E-25   -2.8275371743565136E-25  -1.5820754727488088E-26  -2.803656603212789E-27   1.5851563210133901E-21   2.4806968224834247E-22   4.589250921514395E-23    -5.2138054071879824E-23
1.0E-6                    3.314290070064542E-22    3.1376371694851407E-22   2.900430820758579E-24    1.5710240037946332E-23   2.719591995849632E-24    2.1319830149768137E-25   4.7379493186514104E-26   -4.718597804132113E-20   -1.2564489791534061E-20  -2.121578628153382E-20   -3.596006765512434E-21
1.5E-6                    -1.2270135710716682E-21  -1.1145566544667977E-21  6.4374002619025856E-24   -6.03767116081323E-23    -4.828656984243431E-24   -5.96451417066621E-25    -1.4723594008521003E-25  2.5731270917916416E-19   6.686912837023629E-20    1.272968640232016E-19    2.7202748441319455E-20
2.0E-6                    2.0133083424335044E-22   7.964658070941614E-22    5.2672359874948494E-24   9.950660306893285E-23    -1.4264697844425442E-24  3.6205365180278497E-25   9.832954929947999E-26    -6.36774177754355E-19    -1.5978614458431357E-19  -1.8460514628031533E-19  -7.92504528731679E-20
2.4999999999999998E-6     6.2168574735164804E-21   3.075220309411796E-21    -5.052934907860887E-22   -6.632273588297731E-23   -3.1303911521518114E-23  3.6778087192021337E-25   9.987686296454395E-26    2.5465714269485337E-19   7.961765632493266E-20    -4.0706066186383054E-19  1.5254070560802675E-20
3.0E-6                    -4.462795845303346E-21   1.9837314791103295E-21   1.5131252399517656E-21   -1.210601520021485E-22   1.2740072394431955E-22   2.0025476747746607E-24   8.475610600251305E-25    2.839601633560597E-18    6.936766495744934E-19    1.029437375652662E-18    3.905582602248379E-19
3.5E-6                    -1.5270312919107775E-20  -2.0642077560561178E-20  1.769966144926165E-21    4.910153388585781E-22    1.8710362444177467E-22   -1.4663443262397418E-23  -4.296752639525938E-24   -6.036292327906758E-18   -1.086879986792038E-18   1.025099443248616E-18    -3.7519784021482817E-19
4.0E-6                    2.3751889608545487E-20   -4.1998975576608924E-20  -1.0478731123981434E-20  1.240335819766136E-21    -7.822456228721282E-22   1.2708137687749835E-23   3.6167595068139156E-24   -4.011839210106783E-18   -2.0429818577014417E-18  -1.952703993504343E-18   -1.3215700094578673E-18
4.5E-6                    -9.144006315704288E-20   1.1758291795871062E-19   -1.0946261119022482E-20  -7.83072096790169E-22    -8.454167113314763E-22   1.8742133444919488E-22   4.80250303615153E-23     2.700545285340002E-17    2.3147115481698674E-18   -4.064331715212817E-18   1.0700242288692611E-18
4.9999999999999996E-6     -1.5354809832432545E-19  2.7510788647584264E-19   4.8123828267602477E-20   -2.6512050941053503E-20  1.3453558053349995E-21   -2.6227412020027737E-22  -1.1729115117681965E-22  -5.965796018292564E-18   7.484500514302998E-18    -3.334465785928433E-18   4.899429917831574E-18
5.5E-6                    1.1829060257052499E-18   -2.960864360226185E-19   1.1307503744102885E-19   -9.486955724850474E-21   4.31522176046648E-21     -1.509426985048149E-21   -3.8098956620241957E-22  -8.788228260567608E-17   5.510342662558797E-18    1.4660312580351298E-17   -5.9847352544682545E-19
6.0E-6                    1.1879611289268503E-18   -1.3312333964429288E-18  -1.6004634539251156E-19  2.340506563169905E-19    1.0574932576218918E-20   1.1881407260923896E-21   9.298873074230664E-22    4.5969600823202587E-17   -1.1860496648007795E-17  4.922925122511458E-17    -1.5783683087277177E-17
6.5E-6                    -7.043103788648981E-18   -5.444238890406576E-19   -8.2986633259393305E-19  2.2611290704578915E-19   -1.0269116988578909E-20  9.573079650582242E-21    2.8588189265709233E-21   2.7172679242979406E-16   -3.1729124653551103E-17  -1.183098567203899E-17   -6.5615212275679815E-18
7.0E-6                    -1.0694943900507834E-17  4.144559542336497E-18    1.8437157864775454E-20   -1.2964304647257035E-18  -1.0724254052588596E-19  1.5356082483152486E-21   -3.983254544575087E-21   -1.2242681313476986E-17  -1.4864556216196844E-17  -2.207942274526395E-16   3.7440991246522065E-17
7.499999999999999E-6      2.161727405209724E-17    8.374713148599006E-18    4.080707652682572E-18    -2.2787703182903374E-18  -6.236773914768762E-20   -4.508654956661335E-20   -1.8126301667684285E-20  -4.879228256175043E-16   6.380750436435883E-17    -1.34281718464774E-16    3.4572874891526295E-17
8.0E-6                    5.85137517294111E-17     -4.0472705410465674E-18  3.934149404834427E-18    4.496865590645278E-18    5.185165354647744E-19    -5.4134532502532105E-20  4.825563426630465E-21    -6.738601308098311E-17   2.789873131262618E-16    6.847822161854377E-16    -2.9328086094177624E-17
8.5E-6                    -3.103696351800667E-17   -4.1897325332080755E-17  -1.3133350388207347E-17  1.4144789839739845E-17   7.7437157305094105E-19   1.3324149397355827E-19   8.647247552312685E-20    7.784697768299855E-16    6.217834346710076E-16    1.1009128129904323E-15   -2.994041795266705E-18
9.0E-6                    -2.771881398116044E-16   -4.492728716520773E-17   -2.987126124902711E-17   -5.767205346263848E-18   -1.4539647440983187E-18  3.785161790177095E-19    6.297066819440833E-20    1.1129710960108375E-15   4.2179464285654215E-16   -7.248514587859602E-16   3.504522053167174E-17
9.499999999999999E-6      -2.8269628341546383E-16  1.058538102189402E-16    1.4012297905548447E-17   -5.906968136907431E-17   -4.170320472578495E-18   -6.596969290094075E-20   -2.7835896956227145E-19  2.525357339636587E-15    -8.639190536665434E-16   -2.6995916263705652E-15  -1.5510027409684535E-16
9.999999999999999E-6      5.300926422459559E-16    2.8864803945803133E-16   1.189329921681749E-16    -3.641563935698342E-17   1.1951444107853497E-18   -1.5353353295374115E-18  -5.325060283700196E-19   4.8749537258465016E-15   -7.148273731537699E-16   1.0708508430193153E-15   2.0974079859768367E-16
1.05E-5                   1.3259737225497945E-15   -9.910942238480409E-17   8.852612452665977E-17    1.5767566685188423E-16   1.388978575406211E-17    -1.7271521480594753E-18  3.975067536551617E-19    3.024225631862313E-15    6.19980242109337E-15     9.289902778404918E-15    2.397190469116823E-15
1.1E-5                    -1.1155816188925582E-15  -1.1827138039238596E-15  -2.991040181770549E-16   2.7051898722120166E-16   9.275638045844783E-18    3.2891734975170025E-18   2.251472066649503E-18    -1.9513754888343297E-17  2.065563594373893E-14    9.81782521246087E-15     4.315691643430445E-15
1.15E-5                   -7.47754070171117E-15    -1.078565276677769E-15   -6.986676716704862E-16   -1.814126645459252E-16   -2.754194500117042E-17   1.017551770244917E-17    1.3355020829241697E-18   1.4518049667714314E-14   3.239337787283246E-14    3.5334190378249597E-15   1.1827953343376149E-15
1.2E-5                    -8.523581125959956E-15   2.0210516904625763E-15   -5.265078762328231E-17   -9.466968514228285E-16   -4.926578087776749E-17   1.5514606892573002E-18   -5.4105092478964904E-18  5.4651641915175314E-14   2.7378961713561626E-14   2.0569551515214744E-14   -1.6513859040988772E-15
1.2499999999999999E-5     4.140337965515181E-15    3.8386160364331354E-15   1.7944697935675128E-15   -5.593394378170692E-16   1.1106441308242906E-17   -3.174624860538544E-17   -1.0494746700987915E-17  9.874406579577169E-14    1.7328620006541594E-14   7.363268742784713E-14    1.9102788375500087E-14
1.3E-5                    7.800834683556908E-15    -4.205053100624412E-15   1.8678744425269208E-15   1.7526817956769442E-15   1.1335966643093015E-16   -4.455027170719224E-17   2.7929395255827464E-18   1.4054233062117593E-13   8.113962925076556E-14    1.144823330290093E-13    7.568308665473685E-14
1.35E-5                   -4.2831217799441847E-14  -1.866498849874069E-14   -3.752007207032598E-15   3.2615364118878783E-15   1.041201848620804E-16    4.112753494715522E-17    3.2303699320618335E-17   2.4420704469342123E-13   3.442966117123252E-13    1.3923598811697357E-13   1.287532590513144E-13
1.4E-5                    -1.3575924880485908E-13  -1.8925578307307104E-14  -1.1754468368760512E-14  -5.734253006451803E-16   -9.496284905381755E-17   1.7554967140859831E-16   3.1841244068003625E-17   5.148884747744376E-13    8.134665824323987E-13    3.3558825842432314E-13   1.3911289855173338E-13
1.45E-5                   -1.7989803843606121E-13  -1.8332849369717243E-15  -9.636234123004142E-15   -8.360667350097307E-15   -3.4252894592918497E-16  8.292394905208419E-17    -4.377640624422821E-17   1.0219455071414431E-12   1.235659604021841E-12    9.059658601417995E-13    2.191265967917493E-13
1.4999999999999999E-5     -1.7736029786888081E-13  -1.3438759322332384E-14  5.83555251129013E-15     -8.841107291176089E-15   -3.5083567506856127E-16  -3.94115470403628E-16    -1.3193151944190823E-16  1.787377645763458E-12    1.413586883385526E-12    1.660438627647736E-12    6.30105053993679E-13
1.55E-5                   -3.692956268949088E-13   -1.0020172531670981E-13  7.694115537998234E-15    6.696724348735897E-15    9.51472932343765E-17     -7.0091875492697385E-16  -5.930086600792928E-17   2.8586216850534025E-12   1.9340753523242805E-12   2.2085660746982623E-12   1.4422418975992052E-12
1.6E-5                    -9.802291962995163E-13   -2.341460063888558E-13   -3.992220425776016E-14   2.3655223254587268E-14   7.638526986493131E-16    1.3471531706568292E-16   2.2335250775792785E-16   4.44853982119766E-12     4.260812842273391E-12    2.983791040436413E-12    2.3245008397465807E-12
1.6499999999999998E-5     -1.8380406858020887E-12  -3.777773114859802E-13   -1.2552676497272262E-13  8.068453092118003E-15    6.365549872741294E-16    1.7710142687497312E-15   3.999446006549831E-16    7.170164996305567E-12    9.400193314518089E-12    5.63285360778167E-12     3.1699654932492666E-12
1.7E-5                    -2.6961129883348014E-12  -6.330460860191279E-13   -1.9260976825873556E-13  -4.7954434484307626E-14  -1.470636826828443E-15   1.5333539657597275E-15   2.31829254927779E-17     1.220713946835298E-11    1.6482148528687726E-11   1.1463459750612875E-11   5.031767014949321E-12
1.75E-5                   -4.106192047553928E-12   -1.1619584524236916E-12  -2.4377014318619857E-13  -8.784353794244789E-14   -5.153157301413598E-15   -2.6905794638841008E-15  -7.8662764453710535E-16  2.0953458608326318E-11   2.3616062604036545E-11   1.954365901949082E-11    9.604016506337423E-12
1.8E-5                    -7.312231783600328E-12   -1.943222164183904E-12   -4.0306860747341706E-13  -4.126341680733418E-14   -8.005616332360167E-15   -7.305707704108098E-15   -1.0686842155719017E-15  3.390040048931904E-11    3.0554916046645136E-11   2.7391048013418552E-11   1.7007037705013093E-11
1.85E-5                   -1.2660975273458222E-11  -2.9868521513068763E-12  -7.844026311991507E-13   4.8143248652363886E-14   -8.673352431940003E-15   -3.925875737700238E-15   3.873900382474693E-17    4.945513628338823E-11    3.93333500704192E-11     3.381099227871264E-11    2.4751929271918608E-11
1.8999999999999998E-5     -1.8667155453390642E-11  -4.9782504220680866E-12  -1.3364826281059558E-12  -1.1719672630813794E-14  -1.044537999813938E-14   8.916908608297638E-15    1.884294044929627E-15    6.391048004027815E-11    5.1030916762258815E-11   3.990463086394367E-11    3.018462934769518E-11
1.95E-5                   -2.356592028367666E-11   -9.025737563690967E-12   -2.0176888217815834E-12  -3.5883451448725364E-13  -2.1427570178889428E-14  1.5108752135111207E-14   2.2879682447489926E-15   7.299677909711236E-11    6.258844946100786E-11    4.662992118623399E-11    3.365334312699026E-11
1.9999999999999998E-5     -2.736069015558698E-11   -1.501345070467641E-11   -3.198821466044932E-12   -8.195702433294711E-13   -5.400804804727809E-14   -7.27561440719735E-15    -4.2366057750648425E-16  7.394329245505354E-11    6.849575991019484E-11    5.250126133249508E-11    3.7593180339799084E-11
2.05E-5                   -3.108971506757445E-11   -2.0832857233931607E-11  -5.616753681904448E-12   -1.0334968836139558E-12  -1.2599439355313686E-13  -5.224023037195771E-14   -5.212738975729078E-15   6.643631675057675E-11    6.57156974053996E-11     5.480999947565616E-11    4.23238822117901E-11
2.1E-5                    -3.4272409027691E-11     -2.4572402420572085E-11  -9.59172213432871E-12    -1.0435448010138336E-12  -2.5358437341231064E-13  -7.162466175333339E-14   -8.481430515710869E-15   5.194273485224925E-11    5.551359443545305E-11    5.2297056966156956E-11   4.4775652865079136E-11
2.1499999999999997E-5     -3.47525347324613E-11    -2.7111785928730646E-11  -1.4381613787229647E-11  -1.6765621161790349E-12  -4.332452223185931E-13   -2.471564491519614E-14   -6.923286431428382E-15   3.227674636800288E-11    4.0147158579277626E-11   4.521464491084435E-11    4.2329996416275414E-11
2.2E-5                    -3.1534057270236884E-11  -3.0647696200171395E-11  -1.8730557396065048E-11  -3.962519717630723E-12   -6.487912306474097E-13   3.6869942392893924E-14   -1.180711949623732E-15   8.486725284924125E-12    1.938072132531543E-11    3.3130570503981074E-11   3.597498355287455E-11
2.2499999999999998E-5     -2.6168066078494377E-11  -3.4414463176637484E-11  -2.2127653403922366E-11  -7.9588335171354E-12     -9.441329062316597E-13   -3.756771003298783E-14   1.6619513912677177E-15   -1.9633405027660518E-11  -8.720076248425953E-12   1.4221337014229358E-11   2.7797161967878558E-11
2.3E-5                    -2.0235271440749935E-11  -3.4159341854705476E-11  -2.5031998164427446E-11  -1.2385723277129351E-11  -1.5110932002631436E-12  -3.531063036351777E-13   -1.1647057957992037E-14  -5.3526465249986553E-11  -4.48404309826747E-11    -1.3037676892746572E-11  1.6508727196769913E-11
2.35E-5                   -1.2486192724370527E-11  -2.7108044304445795E-11  -2.754067727734228E-11   -1.5770410121746002E-11  -2.6564412594183332E-12  -7.93844486012176E-13    -5.486981803060073E-14   -9.531042012591157E-11   -8.798362796467223E-11   -4.873926731540771E-11   -2.353154808846191E-12
2.4E-5                    4.075323140076483E-13    -1.556804001326671E-11   -2.8343134632228995E-11  -1.789557614459278E-11   -4.607328563767965E-12   -1.0748042898824198E-12  -1.3015778172638573E-13  -1.4676775753776298E-10  -1.377502518321132E-10   -9.254866359532643E-11   -3.189752153462411E-11
2.45E-5                   2.0945648022930058E-11   -3.771211222361141E-12   -2.576380046716209E-11   -1.9763078221138027E-11  -7.328952088776201E-12   -1.095728241010883E-12   -2.1821719658452665E-13  -2.0846196142631918E-10  -1.9554485801048576E-10  -1.4466722094725873E-10  -7.11234623533255E-11
2.4999999999999998E-5     4.950106883554201E-11    7.733332974061064E-12    -1.9812562738010432E-11  -2.203535790868016E-11   -1.0548751851269527E-11  -1.2602935499847904E-12  -2.9136606722240007E-13  -2.794869744609446E-10   -2.6287495201212467E-10  -2.0485943902116946E-10  -1.167813626260614E-10
2.55E-5                   8.502920292764672E-11    2.276817874929718E-11    -1.237789795438827E-11   -2.3836070376781914E-11  -1.3907080908651897E-11  -2.2953558649837233E-12  -3.6181674367850856E-13  -3.576572844923059E-10   -3.3890338827072795E-10  -2.712181448612587E-10   -1.6672144941994093E-10
2.6E-5                    1.2581827922864066E-10   4.523986485171203E-11    -4.804907952107981E-12   -2.338279897639522E-11   -1.6971103367402412E-11  -4.587195931789175E-12   -5.366155269441104E-13   -4.396262560382141E-10   -4.198599070192188E-10   -3.4105374202050615E-10  -2.2107900426943433E-10
2.65E-5                   1.7000504030726805E-10   7.566068555749586E-11    4.507231529503542E-12    -1.972375945933656E-11   -1.911052510783333E-11   -7.691450507245285E-12   -1.0102471328005788E-12  -5.208722533929933E-10   -5.004652638675237E-10   -4.128691753791245E-10   -2.81065150251324E-10
2.7E-5                    2.1660481465481717E-10   1.1165644545530819E-10   1.9613658154302503E-11   -1.3567216383028716E-11  -1.9606196171514904E-11  -1.0618645400784844E-11  -1.9524404447952515E-12  -5.959722770209365E-10   -5.758987153837219E-10   -4.862948867827803E-10   -3.470210787224889E-10
2.7499999999999998E-5     2.6606112016192436E-10   1.507024124057176E-10    4.3888828980173365E-11   -6.2334599927381786E-12  -1.817072981438356E-11   -1.2645018398342037E-11  -3.3574839781035576E-12  -6.594582972238674E-10   -6.428672335007694E-10   -5.595369062953256E-10   -4.170145391220053E-10
2.8E-5                    3.189970099264803E-10    1.9209808824266659E-10   7.716824208473798E-11    2.1619674911678122E-12   -1.5362009550459813E-11  -1.3750076689161023E-11  -5.008644437339217E-12   -7.069427117919768E-10   -6.989161720472193E-10   -6.274536364265014E-10   -4.866877009590486E-10
2.8499999999999998E-5     3.743408514757053E-10    2.3648126789765773E-10   1.1566067376659621E-10   1.3327285740533333E-11   -1.2138437637071325E-11  -1.4232376375687618E-11  -6.6360540399512945E-12  -7.355812467694807E-10   -7.403365245231277E-10   -6.826531154643426E-10   -5.504696459291724E-10
2.9E-5                    4.2889174527517484E-10   2.8328529212946933E-10   1.5461816821076744E-10   2.9521313769060325E-11   -8.65530429344318E-12    -1.4091080555989227E-11  -8.129486290461398E-12   -7.429959034617915E-10   -7.606475435423336E-10   -7.181996085143095E-10   -6.031626479594244E-10
2.95E-5                   4.780870820119248E-10    3.2901320583308404E-10   1.9158759549730972E-10   5.176459809034435E-11    -3.507086605622128E-12   -1.3011522692504912E-11  -9.551301267734846E-12   -7.250070424595448E-10   -7.51530184908875E-10    -7.289880462425286E-10   -6.404979231723988E-10
2.9999999999999997E-5     5.164438274057385E-10    3.6895847471873545E-10   2.2766457585714472E-10   7.942324406755735E-11    5.499309571679194E-12    -1.0891209879677165E-11  -1.0887058771190332E-11  -6.740786139318796E-10   -7.05438331641895E-10    -7.110116542087709E-10   -6.584499640381561E-10
3.05E-5                   5.37819247046014E-10     4.0064619678689403E-10   2.656759312440773E-10    1.1130041198849293E-10   1.9515523762677037E-11   -8.026969267946963E-12   -1.1817372029038055E-11  -5.802914784087489E-10   -6.169923218191266E-10   -6.598835546890766E-10   -6.524393948931223E-10
3.1E-5                    5.366156931433171E-10    4.2438972659117557E-10   3.066843507315352E-10    1.4652859151071564E-10   3.760102408015415E-11    -4.535721854429046E-12   -1.1857368675352851E-11  -4.344287295548605E-10   -4.817625944327904E-10   -5.69762529115437E-10    -6.172718284507418E-10
3.15E-5                   5.092505471596254E-10    4.3980196938442585E-10   3.477129351044386E-10    1.8408752467668216E-10   5.770237877962727E-11    2.7447313646363194E-13   -1.080125084341743E-11   -2.3074590848145483E-10  -2.944243976355159E-10   -4.331643411353593E-10   -5.474424626633967E-10
3.2E-5                    4.539560399181603E-10    4.422694836254232E-10    3.8259019358332107E-10   2.2192634250794077E-10   7.875887258735007E-11    7.647355257824565E-12    -8.946301721056766E-12   3.236899326710205E-11    -4.905029693281652E-11   -2.42304608811035E-10    -4.372262191885303E-10
3.25E-5                   3.6884430263054515E-10   4.2319077889028993E-10   4.0501353697171533E-10   2.573624907632937E-10    1.016701622590444E-10    1.8410049562868587E-11   -6.680750366579668E-12   3.5330816268684353E-10   2.5838178089384264E-10   8.14297039000034E-12     -2.808355883846976E-10
3.2999999999999996E-5     2.504149838643021E-10    3.733980192257505E-10    4.1097872515528053E-10   2.8864666705383193E-10   1.2799820826028776E-10   3.243857655886993E-11    -3.733489526444644E-12   7.281758359756285E-10    6.276796877435518E-10    3.189769532039377E-10    -7.318178760026564E-11
3.35E-5                   9.39500761019137E-11     2.867649839105267E-10    3.9856223086058964E-10   3.1577887803703655E-10   1.577545307107654E-10    4.916002390118924E-11    1.0695146641414878E-12   1.1512230436336055E-9    1.0541353890938493E-9    6.871716052380288E-10    1.8900437150201073E-10
3.4E-5                    -1.0504637253259616E-10  1.6199843819919313E-10   3.6574645157891786E-10   3.392223722522222E-10    1.886099852317718E-10    6.831306314579467E-11    9.066309764760802E-12    1.615082221310799E-9     1.5296416480446127E-9    1.1082028906119855E-9    5.063311011316622E-10
3.45E-5                   -3.4961076228562206E-10  1.993291462290523E-12    3.0874421621058397E-10   3.5737207897313684E-10   2.1723740259944505E-10   8.985530954042508E-11    2.0601627563112224E-11   2.1104065912984108E-9    2.0434145998521393E-9    1.5765685362832517E-9    8.762727881993247E-10
3.5E-5                    -6.401486758241457E-10   -1.8913700404133854E-10  2.2250020119480746E-10   3.650517908544198E-10    2.4122510887483826E-10   1.1312623229692695E-10   3.460126248558654E-11    2.6241726971718026E-9    2.581412050193216E-9     2.083373837723155E-9     1.2928337482652882E-9
3.5499999999999996E-5     -9.72934753160925E-10    -4.097426181542008E-10   1.0281837514043102E-10   3.546601241398751E-10    2.596542444196614E-10    1.3649993222635095E-10   4.939900056689967E-11    3.1374942176357787E-9    3.1252324318683866E-9    2.6138282446115996E-9    1.7465122171967217E-9
3.6E-5                    -1.3393152288547934E-9   -6.617325867075386E-10   -5.189889015631051E-11   3.1944261027034184E-10   2.7210359833609966E-10   1.5820858566566007E-10   6.407260505985845E-11    3.6253415553128383E-9    3.651907544167606E-9     3.147680747352197E-9     2.2247579789357405E-9
3.65E-5                   -1.7269974190299351E-9   -9.469516822990993E-10   -2.40889893360196E-10    2.5635727930788647E-10   2.7738511816090643E-10   1.7746042005971643E-10   7.90228627518086E-11     4.059194072664055E-9     4.134869885963307E-9     3.661822578652155E-9     2.7124420350123947E-9
3.7E-5                    -2.1226825364594462E-9   -1.2613458452355E-9      -4.6291706228219335E-10  1.659478998280381E-10    2.7319061518196543E-10   1.94468045389912E-10     9.534580358919947E-11    4.410459969283631E-9     4.5449417730070915E-9    4.1316324886401646E-9    3.1916853573331964E-9
3.75E-5                   -2.5133337026370328E-9   -1.5928004950316452E-9   -7.174945359380832E-10   4.916519363856239E-11    2.5664358494837524E-10   2.092234472422042E-10    1.1376511957211221E-10   4.651644227617053E-9     4.85061661639163E-9      4.529542383152477E-9     3.6411850049138453E-9
3.7999999999999995E-5     -2.884548684512604E-9    -1.925386878165955E-9    -1.0032534413182641E-9   -9.580913702592994E-11   2.2495346766930733E-10   2.202707314049134E-10    1.3412251429098721E-10   4.755055892721857E-9     5.018672527558494E-9     4.8232946319232085E-9    4.035798632102667E-9
3.85E-5                   -3.217695206916141E-9    -2.245293995520115E-9    -1.3142161716989086E-9   -2.7330548786207036E-10  1.7554931042030808E-10   2.2467384916018299E-10   1.5551766988398467E-10   4.691706933642879E-9     5.016264844601552E-9     4.977388960461018E-9     4.346951266366306E-9
3.9E-5                    -3.4889359416271605E-9   -2.5411108139285097E-9   -1.6377861474933419E-9   -4.862954608079947E-10   1.057880063126109E-10    2.1909939934308918E-10   1.7639727390619324E-10   4.432476510884905E-9     4.813494769394161E-9     4.957733224512139E-9     4.5440062026591155E-9
3.95E-5                   -3.6715260717580964E-9   -2.7978528669264917E-9   -1.957084230119382E-9    -7.324184665908105E-10   1.2883805216062217E-11   2.0099098707881736E-10   1.942381697984594E-10    3.950948290234453E-9     4.38447496108262E-9      4.73557521609772E-9      4.596343288530247E-9
3.9999999999999996E-5     -3.739796280615024E-9    -2.9924097841644357E-9   -2.2553975514614647E-9   -1.0035814585237842E-9   -1.0540101671840799E-10  1.690293783405132E-10    2.0541759910754683E-10   3.2262456900934455E-9    3.7070490953378228E-9    4.287483355131063E-9     4.475269559536378E-9
4.0499999999999995E-5     -3.6717684149545333E-9   -3.0970326354908244E-9   -2.5180666351017967E-9   -1.2891856047258514E-9   -2.495279293003018E-10   1.2285572129754062E-10   2.0604068644700252E-10   2.2452990703105533E-9    2.7634695560270535E-9    3.592966499281218E-9     4.154802717277496E-9
4.1E-5                    -3.4486090609408874E-9   -3.0879389097841715E-9   -2.7305975312588965E-9   -1.5794383082286095E-9   -4.1737140346025797E-10  6.248318533917358E-11    1.9351264020627513E-10   1.0048403636994472E-9    1.5432378394858072E-9    2.6342086141705404E-9    3.611716370482908E-9
4.15E-5                   -3.0522425628669766E-9   -2.949999381271777E-9    -2.8763373278559196E-9   -1.865396433899793E-9    -6.046123637977661E-10   -1.2220619178174652E-11  1.676172492329239E-10    -4.870466621594257E-10   4.665842960244764E-11    1.3996366817059986E-9    2.8266403115083262E-9
4.2E-5                    -2.4646018544067478E-9   -2.6731089249305277E-9   -2.9364464387689406E-9   -2.136062968447836E-9    -8.060576214662658E-10   -1.0176719629867142E-10  1.3003073126263E-10      -2.210280774896076E-9    -1.7129070965648717E-9   -1.1148352527970239E-10  1.7870548665141657E-9
4.2499999999999996E-5     -1.670558478019252E-9    -2.245188145641949E-9    -2.890942802186821E-9    -2.3760187805483523E-9   -1.0167081651318008E-9   -2.0689397557157105E-10  8.247713613599045E-11    -4.1327076644840566E-9   -3.7083828868656247E-9   -1.8866448088894775E-9   4.904038268119854E-10
4.2999999999999995E-5     -6.626655666489604E-10   -1.6501359806708744E-9   -2.7189397196241925E-9   -2.5663332896068226E-9   -1.2316066828614909E-9   -3.280573175808528E-10   2.4901964539840746E-11   -6.209700262950111E-9    -5.898852241209659E-9    -3.8997910221061344E-9   -1.0550138018005702E-9
4.35E-5                   5.559714178714183E-10    -8.737007819115788E-10   -2.3994196493501374E-9   -2.6878476817274898E-9   -1.444561161200011E-9    -4.6475942190082636E-10  -4.493264542685757E-11   -8.383390971746176E-9    -8.229216910616478E-9    -6.111102242556585E-9    -2.8309737169470983E-9
4.4E-5                    1.971830282348452E-9     8.756712293204386E-11    -1.9147619544001723E-9   -2.723542812694227E-9    -1.6467390274737084E-9   -6.149301035919826E-10   -1.3012991602250657E-10  -1.0582731344062103E-8   -1.0629944104547148E-8   -8.46628510694823E-9     -4.809289976515976E-9
4.45E-5                   3.5617925696763524E-9    1.221951194970808E-9     -1.2554231040589376E-9   -2.6580774900187263E-9   -1.8262027201659468E-9   -7.745097488299316E-10   -2.326429522437862E-10   -1.272540923445964E-8    -1.3017727246885516E-8   -1.0896396699049357E-8   -6.949446328305156E-9
4.4999999999999996E-5     5.29253787927387E-9      2.50607776834664E-9      -4.2141808700588096E-10  -2.4758051507987434E-9   -1.9688361994727985E-9   -9.373799745649968E-10   -3.5206970816783124E-10  -1.4721072486596349E-8   -1.5297589865878613E-8   -1.3318759756193588E-8   -9.195882165348766E-9
4.5499999999999995E-5     7.119482221076244E-9     3.9120210432488155E-9    5.806394015207213E-10    -2.160025456410475E-9    -2.060244036058892E-9    -1.0958538154638302E-9   -4.859623668540165E-10   -1.6474261742274225E-8   -1.7366216757638616E-8   -1.5638583397167732E-8   -1.1477720258580227E-8
4.6E-5                    8.987394024407888E-9     5.410244734966841E-9     1.7409480241070799E-9    -1.69479509722548E-9     -2.087539814239622E-9    -1.2417669074354678E-9   -6.30923834737318E-10    -1.7886439033771786E-8   -1.9115679897088403E-8   -1.775129439194341E-8    -1.371120814874332E-8
4.65E-5                   1.0832493800318872E-8    6.965151982506477E-9     3.0457715684112504E-9    -1.0682657762878716E-9   -2.0399385407777462E-9   -1.367696144318953E-9    -7.830707215680742E-10   -1.885846085079141E-8    -2.0436775757521077E-8   -1.9546160880852187E-8   -1.5802849747499182E-8
4.7E-5                    1.258380344741469E-8     8.528065338298341E-9     4.472462426710065E-9     -2.7548715086431117E-10  -1.9079432574713833E-9   -1.4674441809886773E-9   -9.372600279132513E-10   -1.9295214716292962E-8   -2.1222044120847343E-8   -2.0910917491742606E-8   -1.7651775582324477E-8
4.7499999999999996E-5     1.4162934196880444E-8    1.0035156189621134E-8    5.984525440596573E-9     6.805687760567256E-10    -1.6821363344275617E-9   -1.5352791478833048E-9   -1.0860113890439511E-9   -1.9112139974335743E-8   -2.1369527007065013E-8   -2.1735945448764354E-8   -1.9152024639091033E-8
4.8E-5                    1.5484275126555867E-8    1.1412459592798588E-8    7.530978297001863E-9     1.7893255051918968E-9    -1.353035464295784E-9    -1.5644238208137467E-9   -1.2196325530509966E-9   -1.8241308605754593E-8   -2.078827835852172E-8    -2.191740208455613E-8    -2.019621689330489E-8
4.85E-5                   1.6457739814690507E-8    1.258337657050435E-8     9.050531992893118E-9     3.032794689786424E-9     -9.125645797261707E-10   -1.5460646391283344E-9   -1.3279575701171006E-9   -1.663522185827484E-8    -1.94052282166121E-8     -2.1360847811298387E-8   -2.0680807254808478E-8