% Model:              Untitled.mph
% Version:            COMSOL 6.0.0.405
% Date:               Jul 14 2025, 15:24
% Dimension:          1
% Nodes:              401
% Expressions:        11
% Description:        Point graph
% Time (s)                Displacement field, Y component Displacement field, Y component Displacement field, Y component Displacement field, Y component Displacement field, Y component Displacement field, Y component Displacement field, Y component Displacement field, Y component Displacement field, Y component Displacement field, Y component Displacement field, Y component
0                         4.563389860241843E-30    4.021633379502376E-30    -9.94573421450373E-31    -3.934736650362413E-30   -6.872297123586448E-31   -2.8835836898478594E-31  -2.0483480917247988E-32  -1.8742282673130436E-34  -2.2443523892081144E-34  -4.4627717513214177E-35  -4.4683232225872964E-36
5.0E-7                    -6.015754956119989E-22   -4.694414524377509E-22   1.1852220327165232E-22   -2.9450311299088927E-23  -8.613591890965213E-23   -9.909830506513822E-24   1.4836540506112342E-25   -2.5716723035454816E-25  1.5020457299987198E-26   1.3133932887762978E-27   4.516537982466182E-28
1.0E-6                    -6.998108788610347E-22   -3.9776278436035934E-22  2.2139599740607485E-22   4.553682571388406E-21    1.0277408180432518E-21   4.032034278244104E-22    2.3206502139325117E-23   1.0806033580879256E-24   1.807444749983953E-25    4.6785310137559506E-26   1.4711767015310651E-27
1.5E-6                    1.3798880187676228E-20   8.88542357728428E-21     -2.3018144470468325E-21  -2.0030208600673797E-20  -3.3959693136204085E-21  -1.7225618988596394E-21  -1.1389563118243497E-22  -4.21739256492003E-24    -1.2635258660144886E-24  -2.6524864941167594E-25  -1.377935372984477E-26
2.0E-6                    -6.059673449480443E-20   -5.218662183740409E-20   7.142643043677594E-21    5.516543133620781E-20    1.175084158375877E-20    3.696756949630748E-21    2.6914699848352577E-22   3.0188836091992765E-23   3.823613360959343E-24    8.133903157234536E-25    5.780516422324053E-26
2.4999999999999998E-6     1.2528913948777556E-19   1.580918280597708E-19    -1.1355835416186973E-20  -1.2728863864599503E-19  -2.887497739655067E-20   -5.2063301110968656E-21  -2.148254500179708E-22   -8.615860272145481E-23   -5.624677363599758E-24   -1.4249356139275102E-24  -1.4186199913898825E-25
3.0E-6                    -9.526020825423127E-20   -9.595751921891183E-20   1.6078548118415012E-20   7.032641299446891E-20    -1.182628186312719E-20   2.5631467431457554E-21   -6.480974109441984E-22   -8.984557562341289E-23   9.646970578569944E-25    -6.652975412637284E-25   9.697456568731915E-26
3.5E-6                    -9.329487862863978E-20   -6.95283102991464E-19    -1.9707072312040155E-20  5.946765408114499E-19    1.681082457992431E-19    2.180881879963389E-20    1.487687460867651E-21    5.557121111950511E-22    1.732215701519875E-23    1.0208500629267523E-23   5.518296170541179E-25
4.0E-6                    7.266685041260923E-19    1.1164958634314755E-18   -9.672732180028079E-20   -9.897036194672246E-19   -4.6013405060595784E-20  -4.498189897036669E-20   2.0545446823668604E-21   2.8871580318353644E-22   -5.907068473709863E-23   -1.1494866488066582E-23  -1.5576436680331296E-24
4.5E-6                    -2.354872208292033E-18   2.616263564736961E-18    3.0778774312094683E-19   -1.3940829256016902E-18  -5.983116891870512E-19   -4.696980063432532E-20   -6.535949917934991E-21   -2.2488190058476035E-21  5.611507662520138E-23    -4.0597593309198364E-23  -4.652142494944467E-25
4.9999999999999996E-6     4.79622705014336E-19     -3.704528477162065E-18   1.7059621536514057E-19   1.8447954548308213E-18   -3.4821897679028483E-19  -4.2606970272516315E-20  -1.3274966756558021E-20  -2.9015383997879965E-21  1.458268394003987E-22    8.285528647199213E-23    8.452884229199531E-24
5.5E-6                    1.4154871469888994E-17   -1.332947253056579E-17   -1.591955406523754E-18   4.456534322602702E-18    2.3919619573600833E-18   2.843941952668679E-19    3.472168464561017E-20    1.2154161410925353E-20   -5.868058010175976E-22   1.3736488236944777E-22   -4.5230490273283855E-24
6.0E-6                    -7.347618831230268E-18   1.0717611444697212E-17   -1.1437345760411902E-18  3.4067890937473635E-18   4.945672687786217E-18    1.3998896134910577E-18   5.429731257482264E-20    1.8565158386825776E-20   8.056704067875706E-22    -4.545638572243929E-22   -4.1884371922132494E-23
6.5E-6                    -5.3462537323065934E-17  7.304513711675101E-17    4.9314132472418826E-18   -1.6830243077588042E-17  -8.528115953959118E-18   -8.863665957023328E-19   -1.6294659746343482E-19  -7.393795039152861E-20   3.783922233245112E-21    -3.6697352049884055E-22  3.6928534978735195E-23
7.0E-6                    1.9383962875706822E-17   6.797990245379241E-18    5.69630849681236E-19     -4.4813863579233316E-17  -3.345589569123291E-17   -8.854117810519754E-18   -1.7128983176349248E-19  -1.0302689897767152E-19  -1.1091872287819555E-20  2.1350008218393376E-21   2.0075632104710514E-22
7.499999999999999E-6      2.1803271171856417E-16   -2.5042606085118873E-16  -2.939701230250169E-17   3.694332160689458E-18    9.07221060343738E-18     -5.204034340959727E-18   6.293283036651501E-19    3.5282648286525476E-19   -2.530596127708415E-20   1.065715321702547E-21    -1.6914187741415646E-22
8.0E-6                    1.816246496786534E-16    -6.869568616553219E-17   -3.542600616308405E-17   1.3395880557945302E-16   1.41695961644129E-16     2.6062663991731916E-17   3.552527760479586E-19    5.520274965355104E-19    6.61233390749054E-20     -7.819364908196044E-21   -9.004909364872554E-22
8.5E-6                    -3.6305164063661287E-16  1.073793782962074E-15    -8.05889421256255E-18    1.2505665122481154E-16   8.262186994265635E-17    4.406988723801088E-17    -2.920840086027798E-18   -1.21877701513371E-18    1.4784706469443605E-19   -5.532355831028163E-21   4.748193567674052E-22
9.0E-6                    -4.929670782104125E-16   1.6013400138288655E-15   -1.7636842878585578E-16  -3.596401797439629E-16   -4.1539481247415357E-16  -2.623709937709697E-17   -2.5623439914210224E-18  -2.637331975136234E-18   -2.5766423078775296E-19  1.569478254701447E-20    3.6272702318493375E-21
9.499999999999999E-6      1.9261048949008995E-15   -3.6723612835870156E-16  -7.383210586424917E-16   -1.3818794981348898E-15  -6.679087717138612E-16   -1.686193862441647E-16   9.571319267143249E-18    2.4952027672003184E-18   -6.880188658562847E-19   2.3651842588727305E-20   -2.741451935846561E-22
9.999999999999999E-6      6.7192405913449745E-15   -6.003965780763547E-16   -1.5345614623623082E-15  -2.0699416845085964E-15  4.013447908807846E-16    -2.348241374320656E-16   1.4323816483054556E-17   9.422347669667367E-18    6.833655280150404E-19    3.246186047751929E-20    -1.2559195059279491E-20
1.05E-5                   9.104451808462887E-15    1.0119856108937525E-14   -2.921254633585835E-15   -1.11927386820341E-15    1.820520876138584E-15    -3.93521878329524E-17    -2.882945564098601E-17   -1.4042612753100384E-18  2.4225513365769748E-18   -3.907410935886089E-21   -5.9046644236375146E-21
1.1E-5                    1.0567407748220165E-14   3.2073642566014133E-14   -7.273970440177693E-15   8.693712621401867E-17    6.095973203453897E-16    5.6909221994461155E-16   -9.698316723562075E-17   -2.80283530964186E-17    -1.5952878236555128E-18  -3.9692955005610614E-19  3.3956055017244347E-20
1.15E-5                   3.5360658816465756E-14   5.584304744007075E-14    -1.9770260896759395E-14  -6.455888888009865E-15   -3.918610784359016E-15   1.1348300862806714E-15   -4.5667286081369044E-17  -2.109369116646641E-17   -7.772455369662794E-18   -6.774473257223638E-19   3.8954785636236566E-20
1.2E-5                    1.190759102411804E-13    9.449597974060989E-14    -4.953186189849836E-14   -3.644608192229292E-14   -8.390261195134441E-15   -6.298713033425581E-16   2.1296548038148114E-16   4.871454258375327E-17    2.672330681485728E-18    1.3263866724336203E-18   -5.826815402561365E-20
1.2499999999999999E-5     2.784525453938952E-13    2.1304559629502178E-13   -1.1225284417970498E-13  -1.0033574222889756E-13  -8.47736311366644E-15    -6.852031967823619E-15   3.2808150997802926E-16   8.61506093262016E-17     2.2554516535321466E-17   4.672459559979821E-18    -1.4414730825499879E-19
1.3E-5                    5.478542504525808E-13    5.206408352386991E-13    -2.358179272456285E-13   -1.6961910492345176E-13  -1.7081544529487975E-15  -1.1850454775312472E-14  -4.364970223387319E-16   -7.733935846514418E-17   -5.247505398391698E-18   -2.027222389273511E-19   -2.6824404844938893E-20
1.35E-5                   1.1026488209666914E-12   1.153951101466107E-12    -4.822703549110882E-13   -1.9113672622891572E-13  2.078971098320289E-15    -2.778464071106345E-15   -2.015428589644505E-15   -4.002012463477264E-16   -8.260697022652899E-17   -1.7016049434978185E-17  2.588719832746565E-19
1.4E-5                    2.3238016459228752E-12   2.2771717213620502E-12   -1.003356113848499E-12   -2.5078881985411725E-13  -3.478921512428168E-14   1.5241569871203076E-14   -2.3222024473266E-15     -4.177685647556989E-16   -5.500696627773843E-17   -1.82544559436788E-17    4.722022792356802E-19
1.45E-5                   4.738950795992185E-12    4.140518538115415E-12    -2.0974126437968364E-12  -7.081832537027089E-13   -1.4642716732374228E-13  -6.945847601666508E-17   8.213327029329923E-16    2.37063858120265E-16     1.6397778124048795E-16   2.8977452350362486E-17   1.4092528833768496E-19
1.4999999999999999E-5     9.064967592645759E-12    7.336225206646995E-12    -4.187408836396187E-12   -1.8480239419688145E-12  -2.8981974106564803E-13  -8.287760687631534E-14   4.2142982157045555E-15   5.064213769649977E-16    2.1699120224456049E-16   8.082329763877956E-17    -1.5521557931989859E-18
1.55E-5                   1.641196321702022E-11    1.3091911063962261E-11   -7.765038260752986E-12   -3.2232752568865485E-12  -3.9225278291243367E-13  -1.8665424846545922E-13  -2.3708710802462662E-15  -2.2465368287800978E-15  -4.1904690138150473E-16  1.8889285778526802E-17   -3.572834502195094E-18
1.6E-5                    2.8066153562354386E-11   2.2804860296949842E-11   -1.3521838144891409E-11  -3.950906698237376E-12   -5.742426654830604E-13   -2.2726992665263192E-13  -2.562400904101746E-14   -9.003675099470181E-15   -1.4223459868774553E-15  -1.7900809540709726E-16  -6.292589647553937E-19
1.6499999999999998E-5     4.4401361451526903E-11   3.6587029474187713E-11   -2.2556040220375135E-11  -4.49106134152124E-12    -1.2276980539842586E-12  -2.480618776334699E-13   -5.3123375340036363E-14  -1.6009424762082447E-14  -1.480133831002426E-15   -3.055263729071459E-16   8.343492140620359E-18
1.7E-5                    6.380885543410238E-11    5.255074783266531E-11    -3.586680210995145E-11   -7.748847180600433E-12   -2.7346161402046965E-12  -4.587940773710675E-13   -5.916527623429589E-14   -2.0577385341860115E-14  -2.877403375535394E-16   -7.627216993949618E-17   6.2045960515811445E-18
1.75E-5                   8.311003802563706E-11    6.84881010886054E-11     -5.2857523872307597E-11  -1.6910803071813214E-11  -5.273214501702516E-12   -1.0128636775653277E-12  -4.992730461354586E-14   -3.5437504093646454E-14  -7.963537450226847E-16   5.04190725747546E-16     -2.496685546621562E-17
1.8E-5                    9.921895962300471E-11    8.389311370858386E-11    -7.050238303600367E-11   -3.1655338393671307E-11  -9.123174030376875E-12   -1.831199972227948E-12   -1.1414680550688E-13     -9.397804332297832E-14   -8.072314359624839E-15   7.797065980662454E-16    -5.948551648989105E-17
1.85E-5                   1.1006884129298784E-10   9.860473365562967E-11    -8.501876268136287E-11   -4.7765747357801065E-11  -1.4902577669616774E-11  -2.8132971071072E-12     -3.9309324710386705E-13  -2.316609267972537E-13   -2.4679108238504507E-14  -5.522981767777292E-16   -5.330559495353779E-17
1.8999999999999998E-5     1.1397684963151196E-10   1.0944823744798497E-10   -9.456481269099928E-11   -6.1430149278302E-11     -2.3074897610579757E-11  -4.205155966780086E-12   -9.37057865340086E-13    -4.596696070358274E-13   -4.786132623194703E-14   -4.136178746721345E-15   -5.36943848432431E-17
1.95E-5                   1.0913562501035038E-10   1.1095486919955624E-10   -9.935017800509648E-11   -7.288761274152086E-11   -3.3354197520005094E-11  -6.629665405806565E-12   -1.6145303861723547E-12  -7.738596610330092E-13   -7.46244740438825E-14    -7.58351863089753E-15    -1.8633252629612854E-16
1.9999999999999998E-5     9.465805214054857E-11    1.0089974084806086E-10   -9.906287934646433E-11   -8.456006602955204E-11   -4.491934715620839E-11   -1.0788700672631276E-11  -2.342611993565742E-12   -1.2306698389782396E-12  -1.1640142291165885E-13  -6.5184113475188564E-15  -4.739410976321622E-16
2.05E-5                   7.169982483131677E-11    8.264544143156195E-11    -9.163221044263397E-11   -9.627851072446109E-11   -5.6860949102757045E-11  -1.7197308818036408E-11  -3.54613661894514E-12    -2.0546845663176967E-12  -2.1662498865919406E-13  -3.2458536372457993E-15  -9.3803271515655E-16
2.1E-5                    4.220258258607171E-11    5.951798844458294E-11    -7.496892447917037E-11   -1.0385646981409705E-10  -6.79174310676133E-11    -2.5929855449517864E-11  -6.15933968399474E-12    -3.641814419757431E-12   -4.5203104438060717E-13  -1.447751225685177E-14   -2.0993007038540662E-15
2.1499999999999997E-5     5.666761464243521E-12    2.8740183827650572E-11   -4.847011569790405E-11   -1.0230014507349882E-10  -7.623226989028622E-11   -3.620906499542497E-11   -1.0673957611752991E-11  -6.318703544886652E-12   -8.985809739424806E-13   -6.045927553665932E-14   -4.8639450849617195E-15
2.2E-5                    -4.255537156974175E-11   -1.609457143383187E-11   -1.2038055614223752E-11  -8.923677287328975E-11   -8.015767692828775E-11   -4.62884130908064E-11    -1.605617223173866E-11   -9.958858545089E-12      -1.585934435739937E-12   -1.4063065521331227E-13  -9.511679437512028E-15
2.2499999999999998E-5     -1.088459778348597E-10   -7.800190442507667E-11   3.541312746342254E-11    -6.499705405682422E-11   -7.900588404228668E-11   -5.4177663630684603E-11  -2.014394603407117E-11   -1.3851176005715519E-11  -2.521414759710499E-12   -2.363658208176869E-13   -1.6395229768737646E-14
2.3E-5                    -1.96560722649068E-10    -1.5565041777978068E-10  9.601186416984071E-11    -3.017823992149688E-11   -7.221656991550382E-11   -5.864939935582175E-11   -2.1619095455170107E-11  -1.7072991047524767E-11  -3.818023249567651E-12   -3.6187639699035965E-13  -3.018014234969067E-14
2.35E-5                   -3.036994611001648E-10   -2.4869372917422023E-10  1.721193265263974E-10    1.648092386384054E-11    -5.8091012176460274E-11  -5.936124787486253E-11   -2.130131045840067E-11   -1.9018579782601707E-11  -5.780775239767097E-12   -6.085734745090432E-13   -6.263435181278335E-14
2.4E-5                    -4.253535032514203E-10   -3.5972791369351395E-10  2.6514263938430915E-10   7.79664932866884E-11     -3.432024724152626E-11   -5.6075862501562746E-11  -2.0917318531043698E-11  -1.9486878245429218E-11  -8.725859018781589E-12   -1.1117401647623032E-12  -1.2763902581651748E-13
2.45E-5                   -5.577349198308542E-10   -4.89422878632211E-10    3.7413545774644305E-10   1.5659112000107156E-10   3.131890983367707E-13    -4.808007453877439E-11   -2.0761421611482086E-11  -1.8340214783479073E-11  -1.2575584255605708E-11  -1.9716093008741957E-12  -2.35634012474462E-13
2.4999999999999998E-5     -6.990612599795971E-10   -6.323455829226865E-10   4.959208664621474E-10    2.5167117379632217E-10   4.5706988056291647E-11   -3.421423008147227E-11   -1.9241928404934337E-11  -1.5357883947274408E-11  -1.6656300178012764E-11  -3.2385145847353814E-12  -4.043868028604194E-13
2.55E-5                   -8.471423789344246E-10   -7.795944966630281E-10   6.272672841832649E-10    3.6022563071218677E-10   1.0201834005814345E-10   -1.2915121285740673E-11  -1.4675617148223884E-11  -1.05010854256671E-11    -2.004662592679876E-11   -4.9741507120491815E-12  -6.815381095644318E-13
2.6E-5                    -9.97472382745463E-10    -9.246255414042081E-10   7.65687330791761E-10     4.802107826713934E-10    1.7054375053398067E-10   1.7715509355104634E-11   -6.6694493702893285E-12  -3.990956769673399E-12   -2.221062502709683E-11   -7.258711923969139E-12   -1.1423790784423536E-12
2.65E-5                   -1.143676050851331E-9    -1.0652771321970754E-9   9.066777120318189E-10    6.118667370280347E-10    2.524987608433199E-10    5.900554207495502E-11    4.577552533422469E-12    4.201458488105194E-12    -2.324214145199478E-11   -1.0063141026817314E-11  -1.8442314505688556E-12
2.7E-5                    -1.2784177027563251E-9   -1.200330986745187E-9    1.041508646984411E-9     7.545258267704839E-10    3.4737377122457834E-10   1.1030058121790422E-10   1.9543683272445765E-11   1.4826903752019258E-11   -2.341335560427313E-11   -1.3086154265312559E-11  -2.785927970914911E-12
2.7499999999999998E-5     -1.3930948120296538E-9   -1.324373705623551E-9    1.1600242893151482E-9    9.022395696819433E-10    4.5295710743106147E-10   1.6888730365575366E-10   3.915471226357648E-11    2.8953352385373318E-11   -2.2428052155994076E-11  -1.571159864198681E-11   -3.93416861682276E-12
2.8E-5                    -1.477145182106583E-9    -1.425394378058637E-9    1.255241969098091E-9     1.0435644435511424E-9    5.666224837850035E-10    2.3200316019165898E-10   6.332407509930917E-11    4.6925186122877925E-11   -1.9042697204291054E-11  -1.7161646259021433E-11  -5.276200674618264E-12
2.8499999999999998E-5     -1.5182144077191627E-9   -1.486985197940799E-9    1.3230059161260177E-9    1.1660920279710356E-9    6.858244940148962E-10    2.989521603359932E-10    9.011042937210524E-11    6.781368915146221E-11    -1.1432289267002057E-11  -1.6853354381921024E-11  -6.771716436999584E-12
2.9E-5                    -1.5030841754943401E-9   -1.4933795395913063E-9   1.3566196111923884E-9    1.2611317132189388E-9    8.070480021952761E-10    3.7081033929369183E-10   1.1661214887580167E-10   8.999775853322501E-11    1.8059840624696561E-12   -1.4818240945285553E-11  -8.193832919281661E-12
2.95E-5                   -1.418698837899831E-9    -1.4329121912429975E-9   1.3430866563137953E-9    1.324050539204206E-9     9.246056651009582E-10    4.477786979056471E-10    1.4118170441440678E-10   1.1231527649160433E-10   2.065390505704496E-11    -1.1762618823748161E-11  -9.083977289365641E-12
2.9999999999999997E-5     -1.2528916487335268E-9   -1.296766494650829E-9    1.2649079067156082E-9    1.3500130277471527E-9    1.0306153890131157E-9    5.267496569094026E-10    1.65239634535758E-10     1.3466699588816514E-10   4.36221688366012E-11     -8.41015872149801E-12    -9.031677801654653E-12
3.05E-5                   -9.945960979356683E-10   -1.0750038605175714E-9   1.104699870491478E-9     1.328976028404012E-9     1.1156523989136446E-9    6.013767089073217E-10    1.9241374779517455E-10   1.574703506675548E-10    6.898937074656783E-11    -4.528917740984952E-12   -8.083865975379483E-12
3.1E-5                    -6.33798229076153E-10    -7.5515936573992E-10     8.487072681529076E-10    1.244608547616431E-9     1.1690742302826344E-9    6.645544064891227E-10    2.2452282910536253E-10   1.804086604905476E-10    9.629809055139821E-11    1.3048052914720917E-12   -6.746052494050445E-12
3.15E-5                   -1.6210389388495957E-10  -3.254787596783745E-10   4.885381674490403E-10    1.078438709875771E-9     1.179481437733606E-9     7.111386856350844E-10    2.578042341794343E-10    2.0163573525068046E-10   1.2652210981499414E-10   1.0749811623315394E-11   -5.350205222013257E-12
3.2E-5                    4.257312040427659E-10    2.207579634976158E-10    2.162776439406003E-11    8.157343858201036E-10    1.1361765379310951E-9    7.385784029303033E-10    2.8401108014981594E-10   2.1828659094035517E-10   1.6063318735249578E-10   2.4459231038263373E-11   -3.3586661046216698E-12
3.25E-5                   1.130206769626113E-9     8.837442439922525E-10    -5.499453971847443E-10   4.4836757450313853E-10   1.0305265483408927E-9    7.448724331543254E-10    2.9619644705845343E-10   2.278972683671944E-10    1.9803286424984873E-10   4.1810292891557207E-11   5.208638451663311E-13
3.2999999999999996E-5     1.946021987345885E-9     1.657833165656119E-9     -1.2216868205759529E-9   -2.6544883294336974E-11  8.551150306969788E-10    7.255035380758245E-10    2.9315683253448325E-10   2.2927664237262917E-10   2.36261684316723E-10     6.169227699059299E-11    7.304921807653328E-12
3.35E-5                   2.8607534391536045E-9    2.5315172941911567E-9    -1.987548482903544E-9    -6.094456197787645E-10   6.011161007689535E-10    6.719190272853887E-10    2.776729796857365E-10    2.2173614698926933E-10   2.717988228826166E-10    8.335698578308774E-11    1.6780965273539436E-11
3.4E-5                    3.853223622147918E-9     3.4862635637115375E-9    -2.837756487144027E-9    -1.2993185464182637E-9   2.5743568857976834E-10   5.73026445404505E-10     2.50959596542823E-10     2.0327456841418685E-10   3.0089997986773437E-10   1.0661405857633862E-10   2.7698393039663677E-11
3.45E-5                   4.893762401614751E-9     4.496061487139355E-9     -3.754472675008138E-9    -2.0917776240571382E-9   -1.8588157843635274E-10  4.189608756245032E-10    2.0971632355952875E-10   1.6968108919038064E-10   3.201192090595012E-10    1.3153158804520242E-10   3.898158907358244E-11
3.5E-5                    5.9472083819566536E-9    5.528664869306461E-9     -4.708238237778594E-9    -2.975539652260152E-9    -7.320858396146803E-10   2.046334981081957E-10    1.4833566429903738E-10   1.1589422210711689E-10   3.2682543808798365E-10   1.5802170681858802E-10   5.069658341579439E-11
3.5499999999999996E-5     6.975137422777344E-9     6.547427964287043E-9     -5.6589613008680116E-9   -3.9298341201614094E-9   -1.3747802815464593E-9   -6.946012967051146E-11   6.312035854439506E-11    3.86538728306982E-11     3.1953914643416557E-10   1.8538713515278543E-10   6.373097703573468E-11
3.6E-5                    7.93408604609836E-9      7.51170086419878E-9      -6.562598091771922E-9    -4.924600480170553E-9    -2.0999165511365363E-9   -3.996837997560546E-10   -4.557977365004688E-11   -6.203543548969929E-11   2.974401107454901E-10    2.1189633241857328E-10   7.850617507342162E-11
3.65E-5                   8.772465081578931E-9     8.374849458650132E-9     -7.378128551527945E-9    -5.922564611265698E-9    -2.8903015662766235E-9   -7.827121564958576E-10   -1.7451346385729646E-10  -1.8390537300380749E-10  2.591625561146001E-10    2.347085410900317E-10    9.404303042912766E-11
3.7E-5                    9.431175725144865E-9     9.081789745711578E-9     -8.066602979075131E-9    -6.8803647862227385E-9   -3.728257909744818E-9    -1.2167309809057845E-9   -3.2050064657116527E-10  -3.245076437025377E-10   2.0197381250040987E-10   2.5039371217027376E-10   1.0833457097668012E-10
3.75E-5                   9.84795304175113E-9      9.569584668104196E-9     -8.582177953782384E-9    -7.747729573656925E-9    -4.594329539225965E-9    -1.6990880123605561E-9   -4.825856340131894E-10   -4.820825188722338E-10   1.2198989340736571E-10   2.5586079852762686E-10   1.1969014329867958E-10
3.7999999999999995E-5     9.961529137062961E-9     9.772342160973335E-9     -8.865926782085504E-9    -8.467043388258323E-9    -5.463358901669647E-9    -2.2222598195827223E-9   -6.611448196966393E-10   -6.546205595527018E-10   1.48712346964418E-11     2.491788259091225E-10    1.2776524976282902E-10
3.85E-5                   9.71411421893488E-9      9.627760786577102E-9     -8.851289251641593E-9    -8.975628860239855E-9    -6.300776239761843E-9    -2.7713382820065613E-9   -8.544401290026232E-10   -8.384041095754252E-10   -1.2355896390645017E-10  2.2976051577598934E-10   1.3322714792217683E-10
3.9E-5                    9.053668038207917E-9     9.081884047548884E-9     -8.476609088503513E-9    -9.209887844441944E-9    -7.061376858299898E-9    -3.324687717906992E-9    -1.0560922767953076E-9   -1.027308037001731E-9    -2.9630043239331357E-10  1.9764894169228308E-10   1.3623496896275777E-10
3.95E-5                   7.936470396354346E-9     8.090977390974292E-9     -7.693357673663476E-9    -9.108949453596924E-9    -7.691483783226034E-9    -3.856662865462235E-9    -1.256082275732426E-9    -1.2130736017521019E-9   -5.034170716618275E-10   1.522090689875919E-10    1.3508151838509753E-10
3.9999999999999996E-5     6.3293376893530706E-9    6.621609884668729E-9     -6.466391272591213E-9    -8.617303053527841E-9    -8.133571941123393E-9    -4.339847465867576E-9    -1.4436160628746072E-9   -1.3861307218683044E-9   -7.406780221140915E-10   9.113749855161613E-11    1.263294099309974E-10
4.0499999999999995E-5     4.211961855504825E-9     4.650862497098489E-9     -4.772130376783887E-9    -7.687372607500957E-9    -8.330673583305218E-9    -4.745365152752364E-9    -1.6082469397546885E-9   -1.536294390600645E-9    -1.0000087240769764E-9   1.0725599393109459E-11   1.0644854298233354E-10
4.1E-5                    1.5801089534553015E-9    2.1685368441107407E-9    -2.599583868886223E-9    -6.28194908444703E-9     -8.228162693632766E-9    -5.042218566274938E-9    -1.7386721277275228E-9   -1.6526420174545294E-9   -1.2712366101019563E-9   -9.25898984675592E-11    7.355204174208052E-11
4.15E-5                   -1.5511326360851704E-9   -8.181687857192139E-10   4.692085523165647E-11    -4.37558476327089E-9     -7.773502591925947E-9    -5.197648122519916E-9    -1.8219990711457466E-9   -1.7227643953516551E-9   -1.543296667214242E-9    -2.2050076363643534E-10  2.7772363129922818E-11
4.2E-5                    -5.145027874394765E-9    -4.279291127847142E-9    3.145099946645614E-9     -1.9557010748552303E-9   -6.917079596304814E-9    -5.178960107436965E-9    -1.8452516390183609E-9   -1.7328002424993021E-9   -1.8043765229000315E-9   -3.7223138001533956E-10  -2.984981387239209E-11
4.2499999999999996E-5     -9.141308706014235E-9    -8.158536315080856E-9    6.650991276068755E-9     9.742494810370673E-10    -5.6161217438092715E-9   -4.955279150413467E-9    -1.7974049835797456E-9   -1.6691032237440869E-9   -2.042062331555852E-9    -5.452583872834115E-10   -9.878888496453321E-11
4.2999999999999995E-5     -1.3454210613126423E-8   -1.2372440812511035E-8   1.0494071840588112E-8    4.3888554425687325E-9    -3.84053145688225E-9     -4.498122344049682E-9    -1.6694865469815902E-9   -1.5201256885822032E-9   -2.2436820714613806E-9   -7.361995874005782E-10   -1.795189914837327E-10
4.35E-5                   -1.797133879893735E-8    -1.6811393009669805E-8   1.4574923783027399E-8    8.234696932089908E-9     -1.5781527487000373E-9   -3.782010624579749E-9    -1.4531250930089613E-9   -1.2764964168083545E-9   -2.39559680465499E-9     -9.40682180265049E-10    -2.727634917978151E-10
4.4E-5                    -2.2554587323905604E-8   -2.13414265676164E-8     1.8768276586271666E-8    1.2427710084589934E-8    1.1619382696803193E-9    -2.7870195487291603E-9   -1.1401878496582736E-9   -9.298665716085652E-10   -2.481386483544957E-9    -1.1523504705810438E-9   -3.7819740352679636E-10
4.45E-5                   -2.7043483925633093E-8   -2.5806567780293668E-8   2.292895705211995E-8     1.6854761544761813E-8    4.348307593732427E-9     -1.502849921552416E-9    -7.246877829909034E-10   -4.732950134986521E-10   -2.4812203248968542E-9   -1.3623265582408674E-9   -4.936140398663778E-10
4.4999999999999996E-5     -3.126070116167945E-8    -3.003218245519394E-8    2.689620068531539E-8     2.1376975357846266E-8    7.927667022758844E-9     6.832931384236927E-11    -2.0509479252648732E-10  9.592556631251692E-11    -2.3740431744373377E-9   -1.559983903009404E-9    -6.151113960607717E-10
4.5499999999999995E-5     -3.501867428723602E-8    -3.382974025655305E-8    3.049553901851468E-8     2.583198961005595E-8     1.1825638111946715E-8    1.9120293372317164E-9    4.151476943427952E-10    7.736681408436065E-10    -2.140942881662282E-9    -1.7344038951334631E-9   -7.379372004975309E-10
4.6E-5                    -3.812541222951839E-8    -3.7002966416368984E-8   3.354127703974088E-8     3.003496268906763E-8     1.594628634546084E-8     4.0030143665706536E-9    1.1283414702668873E-9    1.5492461915875341E-9    -1.766977632686688E-9    -1.8751661422589897E-9   -8.570163565447227E-10
4.65E-5                   -4.038879579191613E-8    -3.935484195621113E-8    3.58418811220215E-8      3.378095929138489E-8     2.017048647788108E-8     6.305132698551266E-9     1.922223340752701E-9     2.4074422277251163E-9    -1.2413292115840725E-9   -1.971898245153848E-9    -9.665933225450782E-10
4.7E-5                    -4.16215561886021E-8     -4.069477833017008E-8    3.720811137668676E-8     3.685146633869136E-8     2.4354963745415775E-8    8.768416119986735E-9     2.7782341258051366E-9    3.328989710969539E-9     -5.577440681675285E-10   -2.0132136703802507E-9   -1.0595359270956883E-9
4.7499999999999996E-5     -4.164958064693953E-8    -4.0846000219283834E-8   3.746317046143516E-8     3.902503024748095E-8     2.833376214605558E-8     1.132597161445437E-8     3.670501701815166E-9     4.288594639001573E-9     2.841104673954052E-10    -1.98605248864758E-9     -1.1273531816924779E-9
4.8E-5                    -4.0322883425246746E-8   -3.965416832932121E-8    3.6454110124498516E-8    4.0089101282846627E-8    3.192226167708447E-8     1.3894051984753015E-8    4.567057613293975E-9     5.253022565437971E-9     1.2777250462910075E-9    -1.875977174371698E-9    -1.16118535125588E-9
4.85E-5                   -3.752595241449515E-8    -3.6997796299271265E-8   3.406217847357989E-8     3.985010543540829E-8     3.492277426825747E-8     1.6375944465711088E-8    5.432186120105295E-9     6.181691159808372E-9     2.4098031934470494E-9    -1.6683656806851281E-9   -1.1529105119994646E-9