% Model:              Untitled.mph
% Version:            COMSOL 6.0.0.405
% Date:               Jul 17 2025, 07:38
% Dimension:          1
% Nodes:              401
% Expressions:        11
% Description:        Point graph
% Time (s)                Displacement field, Y component Displacement field, Y component Displacement field, Y component Displacement field, Y component Displacement field, Y component Displacement field, Y component Displacement field, Y component Displacement field, Y component Displacement field, Y component Displacement field, Y component Displacement field, Y component
0                         7.054102841336278E-34    2.098279865083172E-32    4.5782862783775154E-32   5.530202251947648E-31    7.985119161402568E-31    4.456437629623683E-31    9.024231453421555E-31    3.306730771049528E-31    9.199026350785539E-33    8.602303601585027E-33    2.9646304460824285E-32
5.0E-7                    -4.932989499144544E-25   -3.6113362976539394E-24  -6.227738269001164E-24   -1.0023234422634034E-22  -1.880198263294633E-22   -5.539005529741378E-23   1.0461234427313189E-22   5.461743135929314E-23    7.118213815209677E-25    1.2458839469938584E-24   -4.6865734787952815E-24
1.0E-6                    3.989607078540587E-24    1.1220323210961235E-23   7.203316528207422E-24    1.501879024242923E-22    -1.7193431306079955E-22  -7.038455813006709E-22   -1.0024025210030158E-21  -1.968090654334184E-22   -1.6055289940480527E-23  -2.0139409965818563E-23  5.3706669850426365E-24
1.5E-6                    -9.320233962751458E-24   -3.226683671405744E-23   1.2247720011652034E-23   3.7144167011426793E-22   2.4554137289258626E-21   1.468664727848865E-21    1.138504631916478E-20    2.308003199855203E-21    7.337457073253695E-23    7.912573276875134E-23    -5.290513287829101E-23
2.0E-6                    -2.2108686129319603E-23  -2.812459306781515E-23   -1.3589817450247333E-22  -3.3824456604674473E-21  -1.012768785914111E-20   -1.0775237168090547E-20  -2.5279886070029523E-20  -3.608430398316625E-21   -1.7001337202804316E-22  -1.1954902323591523E-22  2.8924626223137373E-24
2.4999999999999998E-6     2.3261735575384813E-22   7.968663691443297E-22    3.910864346723594E-22    1.4254997546643015E-20   4.0137778743580564E-20   3.079660643270233E-20    2.067884790140451E-20    9.004482490296168E-21    3.402613819881609E-23    -5.990165966898978E-23   4.958317735636338E-23
3.0E-6                    -7.097230049546644E-22   -2.5579805339036438E-21  2.267873202268787E-22    -3.6427075055687465E-20  -4.287299256577929E-20   7.740020597932487E-20    3.4406613178003564E-20   -4.5629085900926634E-20  6.163874191377492E-22    2.844732864215323E-22    3.5261441375469505E-22
3.5E-6                    3.9546538730408436E-22   -1.1977892991926628E-22  -3.819089125854255E-21   1.377697722116268E-20    -1.921539372210272E-19   -1.0732688174634595E-19  -2.880485023550873E-19   -9.188856032839745E-20   1.624178232188621E-22    5.18124871491896E-22     2.7875948763806566E-21
4.0E-6                    3.27632970353911E-21     1.8048518525570692E-20   4.7553864563690834E-21   1.8873117804603314E-19   3.749659605952668E-19    -4.569762584939742E-19   3.392246134104822E-19    4.688674822635898E-19    -3.0956788525954184E-21  -3.484444455705509E-22   1.1380163086182073E-21
4.5E-6                    -4.553661211040504E-21   -2.258074253421006E-20   2.5470144209184905E-20   -2.823515858487146E-19   5.230090527880471E-19    -3.03281041019946E-19    1.8083711393284253E-18   6.789530699214868E-19    -6.617899649671436E-21   -7.726151139767472E-21   -1.0426539096820915E-20
4.9999999999999996E-6     -7.806848301687298E-21   -7.085153822528404E-20   -5.446374875225305E-20   -5.026446728065808E-19   -1.0140273027751639E-18  1.958535542400326E-18    -4.30126828928707E-19    -2.1933318001160336E-18  1.9804051865962264E-20   1.5129514776996018E-21   -5.01726704381768E-20
5.5E-6                    -2.983889983915833E-21   1.896062610684963E-19    -9.878702832711984E-20   8.483166234558948E-19    -1.0387679586693526E-18  4.50107736558251E-18     -6.5367000452546044E-18  -4.173399806957653E-18   4.898364078618209E-20    5.683933821292322E-20    -3.8560536628615986E-20
6.0E-6                    1.883441000074473E-20    2.6394665291804735E-19   3.4671464613419517E-19   2.0264906729336273E-18   1.0109470379819198E-18   -3.580804890969009E-18   -4.535063323105735E-18   6.7616955889398746E-18   -8.287828148037189E-20   1.137633156813234E-20    4.0591471462893187E-19
6.5E-6                    1.6442418996758696E-19   -1.0790941019379165E-18  5.558667235276242E-19    -3.10707136845406E-19    1.9734408360656954E-19   -2.1079323501770067E-17  1.9358570734429198E-17   1.9516837840771435E-17   -2.597071081431631E-19   -3.1626889703246974E-19  7.840839703074991E-19
7.0E-6                    1.0555344567405672E-19   -7.245354062692569E-19   -1.292564509615317E-18   -9.155965944036174E-18   4.641232081004288E-18    -2.2402928757538006E-18  5.570900717730891E-17    -1.156945263788526E-17   1.6857808163969265E-19   -2.2593041331167745E-19  -1.3497066252941111E-18
7.499999999999999E-6      -1.071907422558236E-18   6.134308440662602E-18    -3.139161166859589E-18   -5.2441817237116335E-18  1.9542392592318478E-17   7.52844669283571E-17     3.537276286080414E-17    -6.690782407557855E-17   1.0015086555612673E-18   1.3787554894577205E-18   -5.00571726975354E-18
8.0E-6                    -1.906019835775732E-18   3.687632629545278E-18    4.46795430929233E-18     4.0057243973160185E-17   -5.555350793799993E-18   7.366733337803405E-17    -1.2312156205312615E-16  -4.620558329639303E-18   1.7314277065171633E-19   1.8130208703453466E-18   1.3947514764773217E-19
8.5E-6                    3.9788315200243466E-18   -2.7077996504426123E-17  2.0587241821379068E-17   4.61184212963456E-17     -8.491755403464491E-17   -1.2777539644494986E-16  -1.9756966992109893E-16  1.7958367586050193E-16   -2.7261322730389147E-18  -4.527154374921514E-18   1.7267037414764314E-17
9.0E-6                    1.4596231647588996E-17   -1.928959275839196E-17   2.8950099808482304E-18   -9.089413584686254E-17   -3.6809743937223025E-17  -1.63299552819931E-16    4.469711648908766E-16    1.4578705146433517E-16   -2.825916321693138E-18   -1.0030127541167019E-17  1.3365069086508215E-17
9.499999999999999E-6      -2.125912903966936E-18   1.1333212199120061E-16   -7.180886418839173E-17   -1.215346803072409E-16   2.824698891671457E-16    4.592702588028163E-16    1.6424922169695149E-15   -2.55665923936226E-16    4.652323834418122E-18    8.991932154054135E-18    -4.706892095094698E-17
9.999999999999999E-6      -6.35502708284592E-17    1.5344373861075008E-16   -4.842676627362742E-17   2.8783170254281796E-16   6.034527393467371E-16    1.048841277800204E-15    1.4373507079361019E-15   -4.0113407229624845E-16  1.586942410167173E-17    4.12796472110555E-17     -1.0138504798877654E-16
1.05E-5                   -5.664456686053183E-17   -2.6467219809139903E-16  2.743434892369257E-16    6.964235592377896E-16    4.143674320840335E-16    3.05525394021916E-16     -2.9065588979305464E-16  3.216433821375846E-16    1.3506893067516752E-17   7.330475869269521E-18    -3.4695575737373665E-17
1.1E-5                    1.7945671021422167E-16   -5.872959109347811E-16   5.752905861380135E-16    4.4349556679924985E-16   -6.148115472697703E-16   -3.207018396546558E-16   2.5891698132941166E-15   1.4128967428066968E-15   -2.5808915075568667E-17  -1.1529341378717208E-16  2.8930262200612105E-17
1.15E-5                   4.1645832085274397E-16   6.136854080357237E-16    8.209342365562609E-17    1.5609043471281325E-16   -1.3113443234924978E-15  3.4349000147423547E-15   1.4928476489573328E-14   2.1291210266372575E-15   -4.541154108528202E-17   -1.258886285274864E-16   -3.60051152291015E-16
1.2E-5                    -5.920144255486645E-17   2.6586883242925966E-15   -8.468202840662877E-16   1.2308910390343043E-15   2.909161580236812E-15    1.1663738384555517E-14   2.84528174685032E-14     2.713007005365665E-15    1.7992677469409149E-16   2.0558246937134452E-16   -1.493705326966843E-15
1.2499999999999999E-5     -1.268476572822806E-15   1.5653917637930794E-15   3.5192328269647124E-16   4.87817218157021E-15     1.4384329741237045E-14   1.736453748939309E-14    3.6740290099856804E-14   3.697428001106685E-15    6.912491731764829E-16    6.0800325770208055E-16   -3.1568410148692318E-15
1.3E-5                    -1.1618469956940665E-15  -2.9743604690050665E-15  5.858984446235056E-15    1.3018149297943256E-14   2.1039771955415312E-14   2.018135808166524E-14    6.442041519467657E-14    8.058835930256178E-15    8.173697199410274E-16    3.015871151298826E-16    -5.565433523972116E-15
1.35E-5                   2.572183846170199E-15    -1.1973627722369724E-15  1.299504849779368E-14    2.6049257118474237E-14   9.779814551464942E-15    4.152572238889247E-14    1.479594009157137E-13    2.7545094370114007E-14   3.6567760741493653E-16   -8.639367746178249E-16   -1.1766159671563723E-14
1.4E-5                    7.161885781542358E-15    1.5148899995915972E-14   1.6057649666807185E-14   4.12069997888019E-14     1.1287305530354313E-14   1.0931405425402856E-13   2.950400024028315E-13    7.685872606398138E-14    2.25157663985414E-15     -1.1689720781592506E-15  -2.983524554408417E-14
1.45E-5                   4.1526047309617315E-15   3.5515908944714054E-14   1.9103702638289583E-14   6.848851795731876E-14    9.235550190068646E-14    2.2708737031378209E-13   5.428442250074271E-13    1.5384882473830497E-13   1.0746073471534658E-14   2.071713187926524E-15    -7.17796376211871E-14
1.4999999999999999E-5     -8.193863417955763E-15   4.511685429976526E-14    4.629984722237887E-14    1.4734340908779733E-13   2.548319455274943E-13    3.9693692033324996E-13   1.0352422532853336E-12   2.573258338790888E-13    2.4533514606026887E-14   8.668736354412313E-15    -1.5126042912108873E-13
1.55E-5                   -1.150135215241744E-14   6.049189427910597E-14    1.2695168600784735E-13   3.177891238715028E-13    4.065315011754371E-13    6.928861824428052E-13    1.8262024832134288E-12   4.707265092651501E-13    3.973618262997042E-14    1.2896487522725796E-14   -2.9561923425186093E-13
1.6E-5                    1.971035884454412E-14    1.2507902231508917E-13   2.674167716296443E-13    5.870785091332691E-13    5.419810798652401E-13    1.241745731015675E-12    2.539458540266429E-12    1.000765749951554E-12    7.093718259492382E-14    1.0402596820255409E-14   -5.834791043452266E-13
1.6499999999999998E-5     8.072170456874702E-14    2.763056874224314E-13    4.704139629196562E-13    1.006601392490095E-12    8.884558992545938E-13    2.0848552364317743E-12   2.6437160738886276E-12   2.0640733324721996E-12   1.623480480135483E-13    1.3750252825096578E-14   -1.181260791300446E-12
1.7E-5                    1.2650013308355785E-13   5.668638780863151E-13    8.16750255647768E-13     1.7886841285052935E-12   1.7200861269741762E-12   3.260007351457533E-12    2.5541910279325688E-12   3.826229111913658E-12    3.6633432032388255E-13   5.139606179004234E-14    -2.3449985007835316E-12
1.75E-5                   1.2670415557017864E-13   1.0982324330641521E-12   1.503200290213979E-12    3.2153899347166326E-12   3.167798743730102E-12    5.352805573531921E-12    4.253063379710641E-12    6.711920018739156E-12    7.317075997701275E-13    1.307013241592794E-13    -4.430894106912418E-12
1.8E-5                    1.4262750021597834E-13   1.9422870427147515E-12   2.759766160610385E-12    5.431455774321211E-12    5.607028408008769E-12    9.882355846335136E-12    1.0036039137266616E-11   1.1770175875120394E-11   1.3501742216958364E-12   2.1745481915086743E-13   -7.9696221887688E-12
1.85E-5                   3.408119416487522E-13    3.0956312672435186E-12   4.788658824372962E-12    8.597830263174568E-12    1.0206178339778634E-11   1.8410517894594965E-11   2.0253025379741577E-11   2.0157988966643306E-11   2.4258129177264755E-12   3.1606943548896754E-13   -1.3642204836185934E-11
1.8999999999999998E-5     9.070559703335464E-13    4.762062286648681E-12    7.871537388435682E-12    1.3270510135738838E-11   1.8308307174061074E-11   3.0581253131991225E-11   3.262773586769768E-11    3.165858070687494E-11    4.339914259888435E-12    5.761878960593311E-13    -2.1856250522270917E-11
1.95E-5                   1.9025481515504935E-12   7.68861911842093E-12     1.2410497917422917E-11   1.9968264094435785E-11   2.9498963017277545E-11   4.3286770412822324E-11   4.413275785457814E-11    4.391294538451424E-11    7.757639614207469E-12    1.1914013367745256E-12   -3.2074218252797695E-11
1.9999999999999998E-5     3.1893044076668805E-12   1.2744161434004116E-11   1.8565419699506512E-11   2.778476205529768E-11    4.0547307529976784E-11   5.2774770456218603E-11   5.334464504474981E-11    5.3901034403231716E-11   1.3627427467864034E-11   2.1317788372179397E-12   -4.270794632489706E-11
2.05E-5                   4.628480992971605E-12    1.971396301796434E-11    2.5798270704376617E-11   3.4000272217677574E-11   4.7374055250293107E-11   5.81014488999766E-11     6.078106517968348E-11    6.037148536581909E-11    2.2659234739683447E-11   3.2504553369745517E-12   -5.2035495378274786E-11
2.1E-5                    6.5927195798725675E-12   2.6698432854644917E-11   3.3070828007869294E-11   3.626502483823146E-11    4.873779125261986E-11    6.178957682221612E-11    6.72414724927745E-11     6.410534426104946E-11    3.4380825090480886E-11   4.9944485141355145E-12   -5.91779036303126E-11
2.1499999999999997E-5     1.0305695316339342E-11   3.129147530379203E-11    3.957061663664993E-11    3.5327447944688244E-11   4.747888237208333E-11    6.60250609875748E-11     7.207300994857459E-11    6.542326104908691E-11    4.6889887585668416E-11   8.74623145669376E-12     -6.373445644363114E-11
2.2E-5                    1.7247536107732437E-11   3.25936259230996E-11     4.4754081620068447E-11   3.4420255896980434E-11   4.726356634301554E-11    6.833162593842923E-11    7.263257878751935E-11    6.223494877136819E-11    5.80520513185212E-11     1.5658850859381745E-11   -6.4471387423759E-11
2.2499999999999998E-5     2.766437695613984E-11    3.177651840074094E-11    4.728983891697861E-11    3.497969703038848E-11    4.7976445198646114E-11   6.220805620238127E-11    6.488791688862396E-11    5.139955853920654E-11    6.681113176225936E-11    2.491437631982952E-11    -5.919570732858513E-11
2.3E-5                    3.9523943392256715E-11   3.037627536470895E-11    4.447717876674441E-11    3.343143324438629E-11    4.471921378259179E-11    4.251086089211391E-11    4.4892965474118755E-11   3.158026706731163E-11    7.25793140532388E-11     3.397782689021359E-11    -4.655532159748468E-11
2.35E-5                   4.9263155275457586E-11   2.8132791872421834E-11   3.367053658898649E-11    2.3501123825571855E-11   3.132259794890247E-11    9.29042934274364E-12     1.0799497381048471E-11   3.772570716181737E-12    7.337199501579632E-11    4.1256797251844276E-11   -2.7376920076411312E-11
2.4E-5                    5.393938190287123E-11    2.2775161727532445E-11   1.4520024538287344E-11   2.329982091740918E-12    4.547337212211495E-12    -3.408377759734295E-11   -3.584892817974033E-11   -3.084476693861177E-11   6.582733847077966E-11    4.7784521257142135E-11   -3.1014486607212312E-12
2.45E-5                   5.290984166592165E-11    1.1957112134934689E-11   -1.0735334175207684E-11  -2.6357036755637152E-11  -3.460954056739563E-11   -8.507321279229853E-11   -9.097436883711168E-11   -7.247010302296517E-11   4.7981015105302745E-11   5.513877882236697E-11    2.711507453181256E-11
2.4999999999999998E-5     4.761692989934441E-11    -4.821927261428636E-12   -3.9397572718918376E-11  -5.597668343016032E-11   -8.230633741613998E-11   -1.4280412235039526E-10  -1.505751770590862E-10   -1.2176537792345551E-10  2.1258124667864705E-11   6.206559566793874E-11    6.647975748902429E-11
2.55E-5                   3.9641280128240745E-11   -2.6319269579308437E-11  -7.02334535780288E-11    -8.348831511405919E-11   -1.3385791959153535E-10  -2.0581185010729733E-10  -2.1294781499890562E-10  -1.78307674716766E-10    -1.1474491869322862E-11  6.463154012276375E-11    1.169980825063225E-10
2.6E-5                    2.8383635946192346E-11   -5.133598086754806E-11   -1.0313853350696683E-10  -1.1103930711915386E-10  -1.8545804749578506E-10  -2.712092681454242E-10   -2.7914987199672565E-10  -2.4080008528708766E-10  -4.955317490152568E-11   5.998181688291493E-11    1.7678101672788482E-10
2.65E-5                   1.0267665949106413E-11   -8.003643664579058E-11   -1.3777743864977348E-10  -1.4193673811015455E-10  -2.355618468292657E-10   -3.3665805733722273E-10  -3.521390684661022E-10   -3.08746202916389E-10    -9.503548090190537E-11   4.857750735601051E-11    2.42241396237096E-10
2.7E-5                    -1.9153523430416586E-11  -1.1329812504954023E-10  -1.7351794447745748E-10  -1.7727486271392793E-10  -2.850671589293549E-10   -4.021848943303683E-10   -4.3504359956708044E-10  -3.8340143914436726E-10  -1.4959433630450635E-10  3.1965300115579725E-11   3.1262366653908367E-10
2.7499999999999998E-5     -6.120398123513971E-11   -1.5089914138576706E-10  -2.1051844006943268E-10  -2.1718841888052994E-10  -3.357595625868665E-10   -4.697323800735149E-10   -5.28262539240097E-10    -4.664892231887313E-10   -2.1226715604959105E-10  9.439580521569704E-12    3.906142838158167E-10
2.8E-5                    -1.1189367721353799E-10  -1.9076976110705706E-10  -2.497550857409556E-10   -2.6307276817808154E-10  -3.8856967177520395E-10  -5.411257310899223E-10   -6.263892677500669E-10   -5.571185610058145E-10   -2.8095263086866494E-10  -2.192052014576167E-11   4.776771363618015E-10
2.8499999999999998E-5     -1.6428476321082093E-10  -2.303455900117929E-10   -2.9109018337942204E-10  -3.160879466948904E-10   -4.4333043390821815E-10  -6.153245026832458E-10   -7.179380398501892E-10   -6.491461868752552E-10   -3.550456491246861E-10   -6.445403315344118E-11   5.697883030998654E-10
2.9E-5                    -2.13476119077922E-10    -2.684208806564675E-10   -3.3125134875997027E-10  -3.734268792856128E-10   -4.988252514231922E-10   -6.857423253975482E-10   -7.894012019780572E-10   -7.315769778795387E-10   -4.352758873469451E-10   -1.1833957562304158E-10  6.586301954625377E-10
2.95E-5                   -2.5938975685440867E-10  -3.0508067668087237E-10  -3.642167681250725E-10   -4.2726501049695353E-10  -5.509975087338236E-10   -7.402102474052921E-10   -8.307733747070387E-10   -7.923303220592404E-10   -5.210362089459393E-10   -1.8268308655377896E-10  7.361814275959676E-10
2.9999999999999997E-5     -3.0527060394885587E-10  -3.396874105028076E-10   -3.842966582956183E-10   -4.679524401094171E-10   -5.90976234240919E-10    -7.655908536723165E-10   -8.378989381037643E-10   -8.22437631666941E-10    -6.087092094368669E-10   -2.5707132100419205E-10  7.97036408367727E-10
3.05E-5                   -3.54309034073741E-10    -3.694663467998022E-10   -3.8952808456220484E-10  -4.884958025761789E-10   -6.07083026892164E-10    -7.538398209247499E-10   -8.10240558039005E-10    -8.173284520593437E-10   -6.92626540941883E-10    -3.415532586328093E-10   8.367610384389084E-10
3.1E-5                    -4.0737642258717246E-10  -3.902839307572735E-10   -3.824648558628327E-10   -4.868035427595412E-10   -5.905609705783473E-10   -7.030930452484416E-10   -7.46697148018393E-10    -7.74951020841912E-10    -7.668723286495111E-10   -4.3538170461169743E-10  8.494878789300266E-10
3.15E-5                   -4.6214980847921793E-10  -3.98140856429353E-10    -3.6748880940357896E-10  -4.647491744327353E-10   -5.389052252827708E-10   -6.122635023212175E-10   -6.426542071218107E-10   -6.931007781025139E-10   -8.257891726836025E-10   -5.358106087716497E-10   8.275307797865549E-10
3.2E-5                    -5.126257247499286E-10   -3.893785903496568E-10   -3.4634712383842207E-10  -4.2543139346345355E-10  -4.528088454571301E-10   -4.754060991653603E-10   -4.896717255308696E-10   -5.678421379455101E-10   -8.630781651425226E-10   -6.376868934703735E-10   7.624672822037898E-10
3.25E-5                   -5.49383853671866E-10    -3.601358625199704E-10   -3.1455773304824764E-10  -3.700609194744646E-10   -3.308548956660781E-10   -2.8257317989844134E-10  -2.779229454632625E-10   -3.932872161818191E-10   -8.70653728925147E-10    -7.340386395778958E-10   6.461653563117825E-10
3.2999999999999996E-5     -5.618612797651168E-10   -3.0681095600005403E-10  -2.6082037012825247E-10  -2.951125392840789E-10   -1.687122818567636E-10   -2.6320313698071638E-11  -3.987102889306208E-13   -1.6255667344870096E-10  -8.383233947174346E-10   -8.173943673458019E-10   4.716246555852136E-10
3.35E-5                   -5.423303050948782E-10   -2.2736019801375395E-10  -1.7076024958035953E-10  -1.9140292297585692E-10  3.6905635010169416E-11   2.9302587936652624E-10   3.43843749812959E-10     1.3026283388709046E-10   -7.549353822628919E-10   -8.809894577098638E-10   2.3388621195122774E-10
3.4E-5                    -4.88807116772568E-10    -1.216467635518961E-10   -3.435330136435976E-11   -4.778935781957185E-11   2.8526555363905053E-10   6.679632663258843E-10    7.501450460592983E-10    4.879227161726682E-10    -6.107535413777042E-10   -9.19148129085353E-10    -6.972324156159372E-11
3.45E-5                   -4.037774293823872E-10   9.753161675497569E-12    1.4740294033345896E-10   1.4138427146318069E-10   5.727042633777779E-10    1.0882762246572936E-9    1.2116081731377573E-9    9.084892974319229E-10    -3.9948368538781244E-10  -9.26922291683147E-10    -4.404780089089626E-10
3.5E-5                    -2.8891770613719383E-10  1.6697981056629548E-10   3.6265252415359205E-10   3.717174121161483E-10    8.945145715214282E-10    1.5444697774990736E-9    1.7209537571472596E-9    1.3847573051057424E-9    -1.1829303483277886E-10  -8.992271624770822E-10   -8.788469683365135E-10
3.5499999999999996E-5     -1.4056887644860472E-10  3.510601332830505E-10    5.966129917780276E-10    6.325381620882504E-10    1.2440146732145668E-9    2.0278652944814663E-9    2.268070198569977E-9     1.9046859029075555E-9    2.338360883504853E-10    -8.293482333999969E-10   -1.3829248173372212E-9
3.6E-5                    4.8885284960496624E-11   5.624156301454241E-10    8.400702407525844E-10    9.153930330480257E-10    1.610645992279346E-9     2.528272121217206E-9     2.835942407955854E-9     2.453082582222177E-9     6.572607607952867E-10    -7.07383629979808E-10    -1.9453392031919464E-9
3.65E-5                   2.844940440579082E-10    7.986079060175691E-10    1.0903042197195153E-9    1.2178709783717068E-9    1.981148552159635E-9     3.030778010507474E-9     3.39989332119223E-9      3.0135166366273717E-9    1.1509084338652156E-9    -5.204717693695407E-10   -2.5515662210912463E-9
3.7E-5                    5.638271429460062E-10    1.053157336865152E-9     1.3448953277865142E-9    1.5389608517706286E-9    2.343036183498359E-9     3.513063751384213E-9     3.9311108795874005E-9    3.56793164954836E-9      1.710286482526168E-9     -2.5588935463759806E-10  -3.18115534679262E-9
3.75E-5                   8.786867886364554E-10    1.3165869503386965E-9    1.5963049299493135E-9    1.871700960599878E-9     2.68501732145677E-9      3.945278070747509E-9     4.4005955842801365E-9    4.093249338124406E-9     2.3257671742753797E-9    9.482333800054063E-11    -3.809950621115895E-9
3.7999999999999995E-5     1.2207801624139466E-9    1.5783946851175451E-9    1.8323069736246868E-9    2.2007498449627333E-9    2.9922241759552885E-9    4.293667934692394E-9     4.77992933176157E-9      4.5586521449842824E-9    2.981771972478897E-9     5.338656384646913E-10    -4.4108009222045626E-9
3.85E-5                   1.5846275172541004E-9    1.8274112511059107E-9    2.0394801669512296E-9    2.506080755692088E-9     3.2415470782162483E-9    4.525806615120292E-9     5.039425614512193E-9     4.927914311773378E-9     3.656694573315196E-9     1.0579861009379804E-9    -4.953073100596398E-9
3.9E-5                    1.9647133628243635E-9    2.050256346728686E-9     2.2049337194672016E-9    2.7680973528626053E-9    3.4037905524924247E-9    4.613398758975943E-9     5.146717184592414E-9     5.165640007553808E-9     4.323366436684056E-9     1.6596928392908067E-9    -5.402975143125816E-9
3.95E-5                   2.3498895568321784E-9    2.2305981915387637E-9    2.3158859443626284E-9    2.969821808993796E-9     3.451944499612817E-9     4.531514986719801E-9     5.067566248865698E-9     5.241311584903251E-9     4.949842935199478E-9     2.326826167428742E-9     -5.724852765083333E-9
3.9999999999999996E-5     2.7200900542635857E-9    2.351235262526141E-9     2.359502918229425E-9     3.095875153010151E-9     3.367464736223868E-9     4.257081444498516E-9     4.768432321446794E-9     5.127661001451458E-9     5.500196215145255E-9     3.041321571235395E-9     -5.881757695977863E-9
4.0499999999999995E-5     3.048119470368187E-9     2.3972625917064474E-9    2.3234398188405596E-9    3.1304886507445097E-9    3.1384634044573407E-9    3.7691106038946015E-9    4.219745183727977E-9     4.796804573984447E-9     5.935368446572505E-9     3.779150830067418E-9     -5.835096906287847E-9
4.1E-5                    3.305300600501278E-9     2.3568888058611373E-9    2.1957709903428914E-9    3.056322992233969E-9     2.7530486489623488E-9    3.049922283274913E-9     3.399270985352326E-9     4.219771904611534E-9     6.214495596233825E-9     4.511643091941198E-9     -5.545529047921159E-9
4.15E-5                   3.466851865181146E-9     2.2193795387214814E-9    1.964552061165851E-9     2.8548270122285642E-9    2.1966528687352876E-9    2.0860859860472028E-9    2.29479759983605E-9      3.3704500468607285E-9    6.296621522213799E-9     5.206602149410202E-9     -4.976314710499615E-9
4.2E-5                    3.5135151868509176E-9    1.9733939496517834E-9    1.618906909375386E-9     2.5086496094920033E-9    1.4575634796349103E-9    8.702883739641595E-10    9.05080084859866E-10     2.230504724618808E-9     6.1420118865358035E-9    5.828271075435643E-9     -4.097370764284278E-9
4.2499999999999996E-5     3.4297685361554105E-9    1.6085232002316223E-9    1.1521858465866835E-9    2.005686625857735E-9     5.357444084499497E-10    -5.943891525320757E-10   -7.607466877172969E-10   7.928469201988654E-10    5.712674365718939E-9     6.337032181047637E-9     -2.8879507100924426E-9
4.2999999999999995E-5     3.201414604220748E-9     1.1186930886401263E-9    5.651561933678626E-10    1.3422240682883882E-9    -5.532021639992597E-10   -2.289527617000084E-9    -2.682902321134421E-9    -9.354555095136561E-10   4.97292876654808E-9      6.690203133548072E-9     -1.3384177914090107E-9
4.35E-5                   2.81384919513136E-9      5.039352646307146E-10    -1.3335601694647688E-10  5.224738529327655E-10    -1.7818028058600867E-9   -4.1792280696622855E-9   -4.82761174078061E-9     -2.9299202589126244E-9   3.891321383034892E-9     6.843997784594374E-9     5.473534765108965E-10
4.4E-5                    2.250669323521346E-9     -2.3038484890215512E-10  -9.288573634276441E-10   -4.4466807701067463E-10  -3.1179648461793956E-9   -6.211569881138057E-9    -7.142113171385564E-9    -5.147091683710346E-9    2.444280472904594E-9     6.7554795601675624E-9    2.7494329076445056E-9
4.45E-5                   1.4940205780402454E-9    -1.0744761589386248E-9   -1.8043905554574506E-9   -1.5476693173621117E-9   -4.529334108919361E-9    -8.321406323994841E-9    -9.552686515041504E-9    -7.527300229435196E-9    6.208071953017397E-10    6.3835850249579204E-9    5.2310944227373985E-9
4.4999999999999996E-5     5.295038704871013E-10    -2.0131915464317205E-9   -2.7415082559758326E-9   -2.7709723224170143E-9   -5.981661897015872E-9    -1.0432872213548072E-8   -1.1968545844216123E-8   -1.000047318059788E-8    -1.572879057225701E-9    5.689580989361848E-9     7.939970363224338E-9
4.5499999999999995E-5     -6.45239186207597E-10    -3.0241204037881834E-9   -3.7179275666377684E-9   -4.092191809380753E-9    -7.433105762308031E-9    -1.2462186259339104E-8   -1.4289087218925536E-8   -1.248993134600056E-8    -4.109875041430216E-9    4.638262924386355E-9     1.0808719379525777E-8
4.6E-5                    -2.0143641808218177E-9   -4.076783294753579E-9    -4.703832361690847E-9    -5.480996661469415E-9    -8.829558862702068E-9    -1.4321066257396466E-8   -1.64094309175974E-8     -1.491076305894616E-8    -6.94152659982432E-9     3.2010626763708568E-9    1.3753687647585762E-8
4.65E-5                   -3.5451593665713468E-9   -5.133916367312576E-9    -5.660228111098823E-9    -6.899934934986719E-9    -1.0105349923941404E-8   -1.591922738411545E-8    -1.822233849087691E-8    -1.716537856910622E-8    -9.999234442192873E-9    1.3611419370148175E-9    1.6673294274111837E-8
4.7E-5                    -5.1947388620558926E-9   -6.154326801595002E-9    -6.5414038753336455E-9   -8.305087231424373E-9    -1.1189519546121588E-8   -1.7164849895033222E-8   -1.961920254882751E-8    -1.914248243706543E-8    -1.3197644124347506E-8   -8.809736958523526E-10   1.9449094443429137E-8
4.7499999999999996E-5     -6.915064936335306E-9    -7.0957323101206245E-9   -7.30049312760333E-9     -9.645427606234998E-9    -1.2013992308760127E-8   -1.7964753987353394E-8   -2.0493354623395577E-8   -2.072277847241406E-8    -1.6436543836490236E-8   -3.503650697476231E-9    2.195021139843563E-8
4.8E-5                    -8.652174451703796E-9    -7.915727303188887E-9    -7.894678366884154E-9    -1.0862466606716427E-8   -1.2519646941377069E-8   -1.8227476412338992E-8   -2.0745463402007763E-8   -2.1788674505506126E-8   -1.9600564810732415E-8   -6.46393877726671E-9     2.4039227364574668E-8
4.85E-5                   -1.03421046314705E-8     -8.570622787280303E-9    -8.287073595322726E-9    -1.1892517685754336E-8   -1.2658718748067633E-8   -1.787035578219334E-8    -2.0288234174347188E-8   -2.2232559478051922E-8   -2.2558918708687146E-8   -9.699975648931862E-9    2.5577535669119745E-8