% Model:              Untitled.mph
% Version:            COMSOL 6.0.0.405
% Date:               Jul 17 2025, 07:38
% Dimension:          1
% Nodes:              401
% Expressions:        11
% Description:        Point graph
% Time (s)                Displacement field, Y component Displacement field, Y component Displacement field, Y component Displacement field, Y component Displacement field, Y component Displacement field, Y component Displacement field, Y component Displacement field, Y component Displacement field, Y component Displacement field, Y component Displacement field, Y component
0                         -1.7792870704618904E-38  -2.402833525253017E-38   1.758024087702437E-36    1.314330528034053E-33    1.8256553427054044E-32   2.294993337134397E-32    2.202596126914813E-31    1.3866084684278656E-31   4.496561058122417E-31    3.0159200551691084E-31   -1.93350657651608E-33
5.0E-7                    2.6112743488681687E-30   8.06639033389997E-30     -2.354266071345247E-28   -1.534857364842986E-25   -7.08444509074511E-25    1.6340782720914701E-24   3.1662879792739986E-23   -1.7943308207152642E-23  -6.051373990751761E-23   -2.0449145160676972E-22  2.1649116358565536E-24
1.0E-6                    -6.35086127152311E-30    1.098835518305908E-27    5.311006869157943E-28    -1.3433811885004628E-24  -3.091132100282269E-23   -6.386139377988386E-23   -7.460811835656231E-22   -6.251428825611181E-23   6.154363500740592E-23    7.299834773317521E-22    -5.203000818590659E-25
1.5E-6                    6.769506875935009E-29    -1.1966761498116874E-26  -4.443506278314865E-27   1.3190447653136416E-23   1.848222410226348E-22    2.907897814011187E-22    3.236505135378903E-21    7.00448575957459E-22     3.18903233396303E-22     3.194153548501675E-21    -9.668735592207751E-23
2.0E-6                    -6.198803483329299E-28   3.288634633209124E-26    2.6172875200854596E-26   -3.6429162913270236E-23  -3.554755211764496E-22   -3.919140306427924E-22   -2.7045873671703216E-21  -2.2718712301388647E-21  -4.956276295089667E-21   -2.146421362498247E-20   3.5536204740224475E-22
2.4999999999999998E-6     2.7507065132385553E-27   4.4834658208357625E-26   -1.091882671674715E-26   -1.46223858895177E-23    -1.2175122052593156E-22  -4.019232839606471E-22   -1.1886440102823273E-20  1.6087231878501153E-21   2.4449718191324058E-20   1.5854938206297934E-20   -3.240901724854577E-23
3.0E-6                    -4.00005563304125E-27    -2.3614617253793037E-25  -4.3432155392969625E-25  2.0794299230353078E-22   1.2832958556363291E-21   2.0128220862551537E-21   5.3535603332509074E-21   6.5926650882040304E-21   -3.6775263160575573E-20  9.632563582527393E-20    -1.8442270003948453E-21
3.5E-6                    -1.0405515364084815E-26  -3.420050964588081E-25   4.615409433394986E-25    -3.634872423311284E-23   -1.1285531970641278E-21  -1.0772911165227942E-21  8.487271668572269E-20    -6.891751328261132E-21   -5.436354513687962E-20   -9.418289372839974E-20   1.851890916508206E-21
4.0E-6                    3.4762210509424775E-26   1.446132917055845E-24    4.575232555029385E-24    -1.058278832451525E-21   -4.909302301392624E-21   -1.4483319186640658E-20  1.2077050760063274E-20   -3.936897465418888E-20   2.6818460638550223E-19   -3.1191228281870064E-19  1.4020674056467967E-21
4.5E-6                    3.5545356044458503E-26   2.0916946675053977E-24   -3.5408709229659164E-24  7.697777218017707E-22    1.3741512354310456E-20   1.3046044280550315E-20   -5.683813079307714E-19   4.4746500166994E-20      -1.6939394646759283E-19  9.404076314470337E-20    -5.44352085652424E-21
4.9999999999999996E-6     -1.9529382943240668E-25  -7.407733708735524E-24   -3.3718443579867663E-23  5.1739718480114026E-21   3.4699374442446604E-20   1.2405758215561872E-19   -1.0397667627823082E-19  3.447786007709214E-19    -7.190715645504851E-19   1.338500404628483E-18    -3.3444298545479954E-20
5.5E-6                    -1.511423770623252E-25   -7.923368691217268E-24   7.577515657863797E-24    -7.468033109114675E-21   -1.0382774812310593E-19  -5.0794932676782965E-20  2.7914004226416474E-18   -3.2865834145671124E-19  1.739835132515898E-18    2.057235731903728E-18    -5.0408374579680966E-20
6.0E-6                    1.1520640920165027E-24   3.4962951966421307E-23   1.7377215756872202E-22   -2.430013525571417E-20   -2.4308097207244936E-19  -7.765648939238362E-19   1.7375604142005994E-18   -2.0841396514507242E-18  2.222461684541639E-18    -2.9899207008804345E-18  1.3747851032718853E-19
6.5E-6                    -5.513597230015382E-26   1.5405206822763127E-23   5.864323177354789E-23    4.3055728674438816E-20   4.1764290404131113E-19   -1.7787755466757192E-19  -9.017487612836845E-18   1.5740931660891243E-18   -5.395152099127674E-18   -9.34693968520916E-18    -3.533230310669586E-19
7.0E-6                    -5.9443781722333916E-24  -1.9507875417780884E-22  -6.390323268769836E-22   1.1881402215559017E-19   1.3558938518948081E-18   3.602741902798735E-18    -1.2415931792418729E-17  1.1014078039546334E-17   -2.812057107491956E-18   1.5795488578199562E-17   -2.8590260200882293E-18
7.499999999999999E-6      6.874381311578067E-24    -1.1531443772456409E-23  -4.903920014217983E-22   -1.5662482235349487E-19  -4.221740993224826E-19   3.825777012196228E-18    1.9434780013057834E-17   -3.415069522892426E-19   2.887453074046238E-17    7.399737954235248E-17    -4.753512390648818E-18
8.0E-6                    2.6925751622655344E-23   1.1933746827744262E-21   1.9347089487742107E-21   -5.531230642765867E-19   -5.192792109136036E-18   -1.0720250798251399E-17  7.258328864506774E-17    -3.740840300787652E-17   4.257076197539251E-17    6.063035845332128E-17    -5.656835954086394E-18
8.5E-6                    -6.465789130527261E-23   3.9258362679258E-22      2.0178889658589548E-21   2.6852390959104413E-19   -5.1809203303205706E-18  -2.450503161110518E-17   5.150291873848024E-17    -3.244329498576234E-18   -2.6231647486178718E-17  -3.8155154916319765E-17  -2.4533191651723838E-17
9.0E-6                    -1.2354625210389094E-22  -6.352120971092535E-21   -5.636883188719632E-21   2.1521504803256414E-18   1.0183541637869775E-17   1.413096366177348E-17    -1.429514428271841E-16   1.5876801444923223E-16   -2.0445208905216147E-17  1.2588734545958858E-16   -9.990789046446214E-17
9.499999999999999E-6      4.029889426641231E-22    -5.886611222379922E-21   -5.1270767125414644E-21  8.364184964292222E-19    3.468719215418979E-17    1.0442938529240315E-16   -2.6773738249141736E-16  1.9648090778690947E-16   4.2190725787895205E-16   8.001355709739967E-16    -2.7820261863981885E-16
9.999999999999999E-6      6.366036350106925E-22    2.589050963996017E-20    2.481119977752353E-20    -6.107710361394931E-18   1.718119118402852E-17    8.423750382328081E-17    4.199674045143567E-16    -8.098087144333368E-17   1.0535268149175096E-15   1.4311588885634125E-15   -6.5437170723051E-16
1.05E-5                   -1.895526537989709E-21   4.6273297857886944E-20   3.564404613707671E-20    -8.296986954137055E-18   -1.0035774209892092E-16  -2.074653344564407E-16   1.9443954419053486E-15   8.995047961919654E-17    8.044144784817753E-16    1.6720779228677217E-15   -1.585862155370625E-15
1.1E-5                    -3.259410058360124E-21   -6.45881862737828E-20    -4.646904067680952E-20   1.0219122394938806E-17   -1.9472870368162134E-16  -4.449213502074136E-16   2.257777693767303E-15    1.9151030827586298E-15   5.429296516843818E-16    2.7988527371843E-15      -4.139016540699402E-15
1.15E-5                   7.333382303405743E-21    -2.1901590558318695E-19  -7.418532977874974E-20   3.60218294830958E-17     8.544865508184369E-17    1.975036757805414E-16    3.800712608909123E-16    5.035107041780025E-15    5.184514627255285E-15    5.363405909416139E-15    -1.0556997318565413E-14
1.2E-5                    1.6683440428485588E-20   6.622525889036774E-20    2.708926778932544E-19    1.2501613813883232E-17   7.132650583179066E-16    1.7377541171632035E-15   1.9220376172133642E-15   8.351717850384316E-15    1.7548772842248628E-14   7.392543293489779E-15    -2.5008201256928745E-14
1.2499999999999999E-5     -1.7910657790899272E-20  8.36952215916587E-19     8.522969890504433E-19    -8.226974244696154E-17   6.459885407845168E-16    2.199771562327472E-15    1.4048235261912776E-14   1.561257883300677E-14    3.1767841091525205E-14   1.3047567069214777E-14   -5.642910560923396E-14
1.3E-5                    -6.243715839114573E-20   6.580501418309974E-19    1.1220704236911829E-18   -1.195760347340461E-16   -1.0540263193587454E-15  -1.9606039911371307E-16  3.23618359971531E-14     3.9335649637047855E-14   4.727832593961451E-14    3.8311967077972895E-14   -1.2471686116565536E-13
1.35E-5                   4.0143293062790117E-20   -1.4230561945740923E-18  1.845601742695798E-18    1.0334258502073126E-16   -2.7315139873233434E-15  -2.4708683515749996E-15  5.037360782193948E-14    9.736625124686562E-14    9.354637067972094E-14    8.58445512889966E-14     -2.682450852209336E-13
1.4E-5                    2.592638195461686E-19    -1.6299085243174341E-18  6.097345459786762E-18    4.999368779983026E-16    -3.814651148619596E-16   2.645028820708047E-15    8.961018800944217E-14    2.074496010306477E-13    2.2284172551855798E-13   1.2475630708724767E-13   -5.529149185582826E-13
1.45E-5                   1.5062816032823906E-19   5.624020009412127E-18    1.701064797592294E-17    4.958014596004917E-16    7.027664221960481E-15    1.904624318305217E-14    1.816406281293421E-13    3.940798824050156E-13    4.80499180957715E-13     1.6866296039117955E-13   -1.0911949414299516E-12
1.4999999999999999E-5     -3.3969962474534074E-19  1.531916114446341E-17    3.7539264532904154E-17   -3.3698056652643372E-16  1.2205568451098205E-14   4.3415193496608476E-14   3.0191250598952E-13      7.268501391160459E-13    9.280959249207606E-13    4.0686991272170946E-13   -2.074325078025135E-12
1.55E-5                   5.331195057837785E-20    1.5245956763997754E-17   8.145209560709026E-17    -1.0692094756650365E-15  4.005132927294946E-15    7.126078789063672E-14    4.2102657937261704E-13   1.3871514912073422E-12   1.7175897057977012E-12   1.1352921257078767E-12   -3.801692356384025E-12
1.6E-5                    2.3744239879663884E-18   2.293435082866356E-17    1.9167074448022966E-16   6.844864996547153E-16    -1.3554806440415478E-14  1.0184150459488375E-13   7.173446766499652E-13    2.6764285404477414E-12   3.1071594988333336E-12   2.422145910363119E-12    -6.701608958793879E-12
1.6499999999999998E-5     5.089413459099085E-18    9.660814237155604E-17    4.49126224545986E-16     6.206900450118561E-15    -4.466285749018304E-15   1.491677117168684E-13    1.567822375272974E-12    4.8689258422450416E-12   5.43398122579243E-12     3.9965086029465425E-12   -1.1370720162851891E-11
1.7E-5                    7.583556425777049E-18    2.5824989953700237E-16   9.798479802735988E-16    1.2224533133542473E-14   7.228312630697996E-14    2.9153473392687205E-13   3.0171290352965E-12      8.100322505359063E-12    9.224076900406806E-12    5.860906098862702E-12    -1.8592236586364744E-11
1.75E-5                   1.7300186902180947E-17   4.790087564006542E-16    2.0257718421071254E-15   1.2826118793847985E-14   1.8753254863265514E-13   7.104264546505305E-13    4.3953197144876235E-12   1.2737538753093077E-11   1.5358637484741666E-11   9.14576174238013E-12     -2.9114631017430926E-11
1.8E-5                    4.5455878878490046E-17   9.520860708427722E-16    4.163051498666062E-15    1.0815916592938041E-14   2.341743907481281E-13    1.5610701340473756E-12   5.178027298933698E-12    2.002742405740128E-11    2.4801925731667257E-11   1.5956159862572138E-11   -4.303024705093042E-11
1.85E-5                   9.733087632469689E-17    2.3475641697054467E-15   8.661293051541024E-15    2.7804891090864633E-14   2.102439574642963E-13    2.717169826257072E-12    6.589401643044376E-12    3.167036526687838E-11    3.773149690648541E-11    2.7848403418885518E-11   -5.914787935468944E-11
1.8999999999999998E-5     2.011588735327227E-16    5.404189635985742E-15    1.785752030710259E-14    9.159928656788521E-14    4.176960217576736E-13    3.876873615782897E-12    1.1568737708368685E-11   4.767180507785119E-11    5.29185964830855E-11     4.432596806717991E-11    -7.518197369747805E-11
1.95E-5                   4.737988061951605E-16    1.0496692062707677E-14   3.561390991236631E-14    2.0504083452400182E-13   1.2529065056755493E-12   5.355846301875011E-12    2.2058564050864164E-11   6.485392818426023E-11    6.840016356751009E-11    6.30009027811934E-11     -8.890674569728248E-11
1.9999999999999998E-5     1.1073548194397272E-15   1.9231127374395774E-14   6.868478421252861E-14    3.4692954399987893E-13   2.6270387334829086E-12   8.750512329764211E-12    3.645773112360358E-11    7.911840366840983E-11    8.304044171339659E-11    8.123560654628469E-11    -9.912475484237374E-11
2.05E-5                   2.2581900384847892E-15   3.781450035392604E-14    1.3011909141193604E-13   5.364431628061438E-13    3.895323576608148E-12    1.6043559657575328E-11   5.0875250492935365E-11   8.953280056728898E-11    9.701764397610884E-11    9.739226962717113E-11    -1.0526017151022237E-10
2.1E-5                    4.213721435571448E-15    7.78139412692846E-14     2.436800258768287E-13    8.869312723257018E-13    4.9158429699647394E-12   2.737555670374517E-11    6.312985317531587E-11    9.80441598117711E-11     1.0993878008678536E-10   1.1041444159587351E-10   -1.0600200228857658E-10
2.1499999999999997E-5     8.200861463729436E-15    1.5266150793073012E-13   4.4567617322068744E-13   1.5503008003704445E-12   7.178659226729031E-12    4.0106038711384424E-11   7.434365742373622E-11    1.0390121089258652E-10   1.1818534902643972E-10   1.186018643360839E-10    -9.851909202326542E-11
2.2E-5                    1.7164797529307477E-14   2.7771342046041497E-13   7.862003850396843E-13    2.6369762353908084E-12   1.3110720577881075E-11   5.106269309012643E-11    8.585957426495798E-11    1.0081726924409636E-10   1.1497109424973662E-10   1.1937221692854352E-10   -7.896101045676836E-11
2.2499999999999998E-5     3.521129912898541E-14    4.82652688455884E-13     1.3457424728633984E-12   4.3282720984553675E-12   2.3594830423639823E-11   5.976948323815946E-11    9.549005582463545E-11    8.233106738456037E-11    9.42801893055377E-11     1.1019119604480477E-10   -4.3781375047535894E-11
2.3E-5                    6.663126858976993E-14    8.319025923910716E-13    2.278130113048005E-12    7.106300870123634E-12    3.638270130189982E-11    6.833109681963804E-11    9.792653550779462E-11    4.83683301256628E-11     5.5023050090573315E-11   8.883336309880939E-11    8.766856960672836E-12
2.35E-5                   1.1882776031990944E-13   1.4390423155034028E-12   3.8412982091654306E-12   1.1600647529127288E-11   4.756008545557866E-11    7.738147165895552E-11    8.858786695558529E-11    3.3992683170537934E-12   5.158820865902065E-13    5.2038518269335765E-11   7.7767420980328E-11
2.4E-5                    2.1123917303537225E-13   2.46276139846757E-12     6.3311360739643365E-12   1.7821204407746556E-11   5.46782439491577E-11     8.282049932263765E-11    6.620463316223025E-11    -5.096718634244171E-11   -6.64037621451837E-11    -5.12208787186755E-12    1.6053304350406227E-10
2.45E-5                   3.830010829159453E-13    4.068691107727288E-12    9.892726830739821E-12    2.4508151288064188E-11   5.814271747263651E-11    7.772792432677375E-11    3.175926521038031E-11    -1.183958218060628E-10   -1.4671942033586378E-10  -8.638515696669069E-11   2.5512948218539736E-10
2.4999999999999998E-5     6.883847396418938E-13    6.344819357862182E-12    1.4336793313898513E-11   2.962717959512518E-11    5.956149911776407E-11    5.788734572947903E-11    -1.4128219376467117E-11  -2.0310327790188404E-10  -2.4309004808403034E-10  -1.8980559859468097E-10  3.621329020021808E-10
2.55E-5                   1.184295480799497E-12    9.205697075152186E-12    1.913673631728587E-11    3.181077881071436E-11    5.911362378012977E-11    2.515892138450806E-11    -7.2301648821697E-11     -3.0524608919276965E-10  -3.5561221780808443E-10  -3.0734180024929673E-10  4.834056927903423E-10
2.6E-5                    1.935419487318798E-12    1.23676583388196E-11     2.35897816306946E-11     3.118363315965174E-11    5.4563269316156356E-11   -1.4720943439409347E-11  -1.4411812008317303E-10  -4.2078637750990915E-10  -4.812012302641022E-10   -4.3045853083538247E-10  6.187972448526015E-10
2.65E-5                   3.052964160585862E-12    1.5411057882441277E-11   2.6915224648333257E-11   2.8558067873484362E-11   4.238515318212353E-11    -5.769694956261203E-11   -2.3020876801254082E-10  -5.439019886168698E-10   -6.163221947541956E-10   -5.560839321064324E-10   7.637551051408122E-10
2.7E-5                    4.727811204505909E-12    1.7818586679055833E-11   2.81731392957207E-11     2.3998755260171586E-11   1.9637277382094394E-11   -1.0520805730363553E-10  -3.3036745624144787E-10  -6.697434701599238E-10   -7.578166487659535E-10   -6.863645785875987E-10   9.096970761361978E-10
2.7499999999999998E-5     7.16980860566526E-12     1.89322451833096E-11     2.6221745737171904E-11   1.6547760186629504E-11   -1.4748560317472914E-11  -1.6310611250029793E-10  -4.4390200709086596E-10  -7.960576449895833E-10   -9.001270857249147E-10   -8.23137304516545E-10    1.0467194729933189E-9
2.8E-5                    1.0411181700645102E-11   1.8009149497838326E-11   1.9991445844760528E-11   5.331530649568252E-12    -5.974356963862469E-11   -2.3681961212691796E-10  -5.689222775027517E-10   -9.212353447154131E-10   -1.0333653309514527E-9   -9.635109970599892E-10   1.1666367408522783E-9
2.8499999999999998E-5     1.4089389556442131E-11   1.4563349406044794E-11   8.976688207499036E-12    -9.522891523293351E-12   -1.1303052092853362E-10  -3.267895072237009E-10   -7.007948482268468E-10   -1.0396782948867832E-9   -1.1457311705480224E-9   -1.099658409821818E-9    1.2637317360445865E-9
2.9E-5                    1.7444163321302698E-11   8.7592859423689E-12      -6.474571721565357E-12   -2.7375873724813263E-11  -1.724266210489309E-10   -4.2761063900486723E-10  -8.31833429763051E-10    -1.1403890444539723E-9   -1.2276101001132742E-9   -1.2204106946911182E-9   1.332116950726361E-9
2.95E-5                   1.9634397111105898E-11   1.3204294298042425E-12   -2.5324384845234024E-11  -4.831203418141365E-11   -2.3698471185138777E-10  -5.310814703694771E-10   -9.531442750103881E-10   -1.2113852521292384E-9   -1.272763872114629E-9    -1.312730529955178E-9    1.3621810878974504E-9
2.9999999999999997E-5     2.013287923009002E-11    -7.172414935536234E-12   -4.631470966821032E-11   -7.358751156193121E-11   -3.0682430458691006E-10  -6.303786012263524E-10   -1.0568375976236564E-9   -1.2442675416061096E-9   -1.2762589656878786E-9   -1.3642964250993285E-9   1.340087682665776E-9
3.05E-5                   1.8786343610304922E-11   -1.6979216784993147E-11  -6.846693271150643E-11   -1.0473100130479554E-10  -3.8173101825613357E-10  -7.221281484811341E-10   -1.1364689722027297E-9   -1.2330943135242982E-9   -1.2320390100122331E-9   -1.3666970428079143E-9   1.2509791601697558E-9
3.1E-5                    1.547032656130582E-11    -2.916754219727544E-11   -9.143793868330207E-11   -1.421187184365339E-10   -4.5968642707798507E-10  -8.051745655312791E-10   -1.1857520450453718E-9   -1.1696653371464143E-9   -1.1317213049544724E-9   -1.3148036449610012E-9   1.082540478503691E-9
3.15E-5                   9.809626510879214E-12    -4.480998704862953E-11   -1.1556401057500834E-10  -1.8415563737766673E-10  -5.364745152314426E-10   -8.774762787864196E-10   -1.1969594059670876E-9   -1.0413753279561553E-9   -9.64343510247849E-10    -1.200645847933042E-9    8.259777168819687E-10
3.2E-5                    1.4241516758160637E-12   -6.407735790273632E-11   -1.4140457854097906E-10  -2.275931176030588E-10   -6.064618393000662E-10   -9.337010308031612E-10   -1.1599354344824774E-9   -8.337901636950449E-10   -7.172965575900626E-10   -1.008191935655907E-9    4.747820901918043E-10
3.25E-5                   -9.549628787151991E-12   -8.595791742212974E-11   -1.6889222121054754E-10  -2.6881622339290144E-10  -6.638166718834013E-10   -9.649628875202744E-10   -1.0621603070439668E-9   -5.348003651226503E-10   -3.789905446703797E-10   -7.168957361205842E-10   2.3473300389131606E-11
3.2999999999999996E-5     -2.2427307962479556E-11  -1.0882680012238334E-10  -1.966540016212497E-10   -3.0536128300378995E-10  -7.03384255322986E-10    -9.601270972711218E-10   -8.902622170677412E-10   -1.3648201732005107E-10  5.7812076935383373E-11   -3.124708296658369E-10   -5.318993104728015E-10
3.35E-5                   -3.6705983734080365E-11  -1.3139720059807892E-10  -2.2209468244141427E-10  -3.3649642358881635E-10  -7.206903020476387E-10   -9.074485667175592E-10   -6.324782767533367E-10   3.6556149365664935E-10   5.940836663284459E-10    2.0552226250022474E-10   -1.1911360258506707E-9
3.4E-5                    -5.283343267091842E-11   -1.5317632202725898E-10  -2.422465977346027E-10   -3.620502705659367E-10   -7.109407776607022E-10   -7.961917306617949E-10   -2.804437875038396E-10   9.721332077558812E-10    1.2247439375525513E-9    8.265080080250263E-10    -1.9469405175707316E-9
3.45E-5                   -7.208873542313425E-11   -1.739205371127022E-10   -2.5475305565618603E-10  -3.802093802729206E-10   -6.677724982587752E-10   -6.182843515486207E-10   1.7058324482248505E-10   1.678022724803384E-9     1.9397170074303904E-9    1.5380868951431528E-9    -2.7845949517198964E-9
3.5E-5                    -9.553276576741737E-11   -1.9260059001261079E-10  -2.582575199401767E-10   -3.8642342253248865E-10  -5.833124786698496E-10   -3.6919062631642345E-10  7.219194523095852E-10    2.470355922427377E-9     2.7240881700722982E-9    2.331383065207929E-9     -3.6845939590864442E-9
3.5499999999999996E-5     -1.2290592970109974E-10  -2.0696849485972265E-10  -2.5192255416897233E-10  -3.747969888507312E-10   -4.503790670606004E-10   -4.6887842653371956E-11  1.3705254850136099E-9    3.330579728506239E-9     3.5568808735241647E-9    3.1971708485170193E-9    -4.624380725333708E-9
3.6E-5                    -1.5232956979029036E-10  -2.1418176899970497E-10  -2.344107953945882E-10   -3.4065698147534097E-10  -2.65421996142925E-10    3.505893337632767E-10    2.107382268130994E-9     4.236877681219752E-9     4.410048942388114E-9     4.116855769677051E-9     -5.575769072489266E-9
3.65E-5                   -1.8092459403682637E-10  -2.1183411718129217E-10  -2.030800382989115E-10   -2.8153442250636346E-10  -2.943108286802551E-11   8.266628969646304E-10    2.917147519140827E-9     5.162086409009236E-9     5.250018270044403E-9     5.057001945512159E-9     -6.500265520883256E-9
3.7E-5                    -2.0579972081641441E-10  -1.98475443302565E-10    -1.5412750568175077E-10  -1.9574081628873408E-10  2.54423467076517E-10     1.384464505331627E-9     3.779684924023482E-9     6.0689711165988906E-9    6.041389019735823E-9     5.972338581315356E-9     -7.3478946259378456E-9
3.75E-5                   -2.2469885831144494E-10  -1.7335770983612856E-10  -8.382718220060244E-11   -8.079271197731232E-11   5.844180700583839E-10    2.0218160713934813E-9    4.671251818992579E-9     6.9096294253487154E-9    6.748541409435891E-9     6.8141950227065495E-9    -8.061497479174808E-9
3.7999999999999995E-5     -2.359372727359755E-10   -1.357610352345196E-10   9.871594305343477E-12    6.587909048763955E-11    9.615895051289241E-10    2.7258140282945224E-9    5.562763211960506E-9     7.630698584643282E-9     7.331926617661014E-9     7.536784128352986E-9     -8.582704315160551E-9
3.85E-5                   -2.3792214718243714E-10  -8.440241444647652E-11   1.2652136643485895E-10   2.444925976635119E-10    1.3869808182999218E-9    3.4709908012508655E-9    6.415908558485876E-9     8.178553926280633E-9     7.74246080184163E-9      8.096758241956705E-9     -8.855058231585266E-9
3.9E-5                    -2.2899821642910637E-10  -1.7390131703203867E-11  2.6369945761925193E-10   4.515725887703809E-10    1.8565608561965015E-9    4.222764900890124E-9     7.1813858857916846E-9    8.499615916870473E-9     7.921451864792014E-9     8.448218393024947E-9     -8.82396204924493E-9
3.95E-5                   -2.079455458856775E-10   6.704704732079601E-11    4.1834789326315867E-10   6.812488126938315E-10    2.3574924107479136E-9    4.943639109383227E-9     7.802463686677355E-9     8.538040088932402E-9     7.80859712130168E-9      8.538747851359135E-9     -8.436549770757796E-9
3.9999999999999996E-5     -1.7446987878957413E-10  1.694724487019812E-10    5.87778743041738E-10     9.276902934111068E-10    2.8683066453866303E-9    5.59751370008943E-9      8.221814509716247E-9     8.23645851545371E-9      7.352362963445925E-9     8.31014391336538E-9      -7.643971277225823E-9
4.0499999999999995E-5     -1.2874386623810097E-10  2.88745505566231E-10     7.695617127409375E-10    1.18603870597837E-9      3.3626478380058244E-9    6.149872767797305E-9     8.385925127451761E-9     7.541747545681787E-9     6.51558271095489E-9      7.70427240309716E-9      -6.405697409953578E-9
4.1E-5                    -7.01099630314575E-11    4.2261752953528703E-10   9.604616215018374E-10    1.4510266242820302E-9    3.813925603186554E-9     6.565561743842769E-9     8.243957951515411E-9     6.41227639612448E-9      5.2751381582281925E-9    6.672403890743071E-9     -4.693749617502041E-9
4.15E-5                   3.7127074204122325E-12   5.687446397970618E-10    1.1553120520799577E-9    1.7148979794943435E-9    4.197855069395798E-9     6.8069724579710495E-9    7.74413347921087E-9      4.821493965559835E-9     3.619846681508495E-9     5.184273545507493E-9     -2.495675806766779E-9
4.2E-5                    9.577675798702549E-11    7.24911513848534E-10     1.3466663082568095E-9    1.9666383912398964E-9    4.491486877891557E-9     6.833616714624141E-9     6.8336481426492765E-9    2.756341089936323E-9     1.5501032925515768E-9    3.2317146024370672E-9    1.8306044363070497E-10
4.2499999999999996E-5     2.078634708535593E-10    8.880572647726226E-10    1.5253400110788853E-9    2.19279729481454E-9      4.6699480816481335E-9    6.602742625857992E-9     5.46487756691683E-9      2.1462239546703431E-10   -9.203705010646145E-10   8.251172604184965E-10    3.3164274427166783E-9
4.2999999999999995E-5     3.390152027663623E-10    1.0529050780066662E-9    1.6812012938687216E-9    2.3785924758771065E-9    4.703986778559223E-9     6.071166119999927E-9     3.6050776408838094E-9    -2.7926297872072362E-9   -3.761719854810371E-9    -2.0116664006656554E-9   6.855324050270298E-9
4.35E-5                   4.860747563832884E-10    1.2113431995849529E-9    1.8034622338201834E-9    2.5082692387354766E-9    4.5608717776945015E-9    5.198840343939244E-9     1.2443999900669416E-9    -6.232569359633741E-9    -6.9248406849808995E-9   -5.239824966979649E-9    1.0725869077267364E-8
4.4E-5                    6.458993293948707E-10    1.35302806829951E-9      1.8802813299896825E-9    2.5650168135483165E-9    4.2084847810279065E-9    3.953640011900597E-9     -1.6010944587091786E-9   -1.0041299601782463E-8   -1.0338540404990733E-8   -8.797021427030426E-9    1.4828243582434428E-8
4.45E-5                   8.171541977828603E-10    1.4667772296842654E-9    1.8980736061599033E-9    2.531162767108295E-9     3.620109905624148E-9     2.315870841809924E-9     -4.8911420635241635E-9   -1.4120592263195345E-8   -1.3907588714238125E-8   -1.2590872570363825E-8   1.90363366282785E-8
4.4999999999999996E-5     9.994119594415021E-10    1.5418746148929258E-9    1.841170497415573E-9     2.388715119429662E-9     2.777682915834481E-9     2.814309763668468E-10    -8.564620961439173E-9    -1.834170117784795E-8    -1.7512189836543734E-8   -1.6502421887090508E-8   2.3199901899958316E-8
4.5499999999999995E-5     1.189310205639215E-9     1.5685787160537877E-9    1.6925301594831058E-9    2.1202009299426305E-9    1.6733072243684555E-9    -2.1364687767110113E-9   -1.2540918799715357E-8   -2.255238874850356E-8    -2.100985837616779E-8    -2.039632699216909E-8    2.715005760284903E-8
4.6E-5                    1.3764717884592159E-9    1.537749807411419E-9     1.4359765223776898E-9    1.7105006322927368E-9    3.100580380082433E-10    -4.906588047191882E-9    -1.6718025608750475E-8   -2.6583487187154557E-8   -2.4241157726019027E-8   -2.4127409278028198E-8   3.070607300631263E-8
4.65E-5                   1.5430198543700823E-9    1.4402099563085741E-9    1.059521882576527E-9     1.1502134156442694E-9    -1.29747208219084E-9     -7.979137833759774E-9    -2.0969557453918123E-8   -3.025419170290782E-8    -2.703937142906553E-8    -2.75390951622761E-8     3.368083811590513E-8
4.7E-5                    1.6681365158816336E-9    1.2666775625643293E-9    5.581650587961387E-10    4.392034853468339E-10    -3.1232250498732803E-9   -1.1284479412061978E-8   -2.5144058176759923E-8   -3.3376547498398825E-8   -2.9241324369746797E-8   -3.046010206597607E-8    3.588522864757758E-8
4.7499999999999996E-5     1.734895560051129E-9     1.0086559999525511E-9    -6.536541069496009E-11   -4.124033395191829E-10   -5.1302391653041255E-9   -1.4731165964048249E-8   -2.9067531266863565E-8   -3.5759060750478115E-8   -3.0695719363469E-8      -3.270813417016158E-8    3.713370646020045E-8
4.8E-5                    1.7344494192533957E-9    6.599280252800084E-10    -8.01716427394581E-10    -1.3869420358582955E-9   -7.270705192667544E-9    -1.8205474276144333E-8   -3.254756952787608E-8    -3.720958778550027E-8    -3.126798375909045E-8    -3.410179831589079E-8    3.725249333235028E-8
4.85E-5                   1.6647394720649347E-9    2.179314079365586E-10    -1.6361092860455349E-9   -2.4634483763936774E-9   -9.484753965975672E-9    -2.1574743367357405E-8   -3.5377976282375E-8      -3.7539630762547716E-8   -3.084338977725526E-8    -3.447461098655452E-8    3.608960094004525E-8