% Model:              Untitled.mph
% Version:            COMSOL 6.0.0.405
% Date:               Jul 16 2025, 21:49
% Dimension:          1
% Nodes:              401
% Expressions:        11
% Description:        Point graph
% Time (s)                Displacement field, Y component Displacement field, Y component Displacement field, Y component Displacement field, Y component Displacement field, Y component Displacement field, Y component Displacement field, Y component Displacement field, Y component Displacement field, Y component Displacement field, Y component Displacement field, Y component
0                         -7.35187360482227E-37    -1.1580138182960355E-34  2.4501154349223915E-34   -1.3888307939706521E-33  -1.7972486379343981E-32  -6.870058582226032E-32   4.1894506101258125E-36   3.2976689360087895E-35   -4.8062019324311094E-33  9.94042319632579E-32     9.819515781470224E-32
5.0E-7                    2.679285209296259E-29    -1.764598919114726E-27   -3.652626227500507E-26   1.8051399406919984E-25   1.8782455610015927E-24   1.1420574371401063E-23   -5.523481661074262E-28   1.5578655387091407E-27   4.210854034462832E-25    -1.4480312658665657E-23  -1.3492459881881548E-23
1.0E-6                    9.530416457216159E-28    1.082665292063399E-25    2.375036749063804E-26    -1.8345807572873558E-25  -8.255227834552521E-25   -2.5786401391859936E-23  2.9304552902889856E-28   -3.161636345870623E-26   1.8647713623584933E-24   1.5460686118311213E-23   4.0088758021061326E-24
1.5E-6                    -3.209475182513729E-27   -2.963236474064629E-25   1.7160599085389028E-25   6.557525535717677E-25    -1.175281394318123E-23   -1.7487739950210022E-23  -4.121783012258842E-28   -1.6371018442820519E-25  -7.801297163618035E-25   2.2409154785357912E-23   9.923712786317992E-23
2.0E-6                    -1.2906540465729455E-26  -6.819289659188334E-25   3.596769450914162E-25    6.920451773082798E-25    3.028338696054448E-22    4.2282201934614924E-22   1.362810000393592E-26    8.189819026502381E-25    1.3516603299613378E-23   -5.711174564506276E-23   -3.5399899557882544E-22
2.4999999999999998E-6     5.0898840180975067E-26   5.371368635043485E-25    -1.717422701860639E-24   -1.8862269758195552E-23  -1.592797269844311E-22   -7.476698825461456E-22   -2.0001719813906048E-26  4.205644368643667E-24    3.8142258951255783E-23   1.170654678612996E-23    6.637373741920578E-22
3.0E-6                    1.5100738803492099E-25   1.6485831511457542E-23   -1.885154866698175E-23   7.905251637449997E-24    1.0829639339337383E-21   -1.4691801624155207E-21  -2.3390300888324106E-25  -2.4335501965010278E-24  2.4894648062453915E-22   -8.572209229859586E-22   -1.663034662163931E-21
3.5E-6                    -3.9258725628726246E-25  3.2414911546820194E-25   5.567824213632522E-23    3.803827717144161E-23    1.8185592216397823E-21   -3.743704953293393E-21   4.740512686356762E-25    -4.109972764913359E-23   5.967134442082838E-22    3.2087771010476426E-21   5.707555684371618E-21
4.0E-6                    -1.2846297929262626E-24  -1.4696452448828495E-22  1.4961293760348278E-22   9.893923812618218E-23    -1.9994584349632685E-21  3.282056252559436E-20    2.6534592690495936E-24   -7.009101558967271E-23   -3.978768620279837E-22   5.5168208754130376E-21   3.390113100567103E-21
4.5E-6                    6.518455487730981E-25    -1.1862335659443853E-22  -4.289686034788257E-22   -2.025181408356267E-22   2.879177475056313E-20    1.9152598944875513E-20   -2.9008886179427506E-24  1.7043169328671091E-22   -3.5824906631199445E-21  -7.120720498494941E-21   -5.622231894333513E-20
4.9999999999999996E-6     8.73104383057849E-24     7.616814649191679E-22    -1.3625153180866098E-21  -3.1905423995886418E-21  -3.9187207735060695E-20  -2.722196064853522E-19   -2.326697104857931E-23   7.999818769700948E-22    -4.177327664405495E-21   -4.019700257015423E-20   1.1833513924930172E-20
5.5E-6                    1.2226911910954396E-23   1.3352241923628682E-21   1.2573320026922612E-21   -5.257896021123959E-21   -5.885159674213169E-19   -2.6881804185566646E-20  -8.83419362617797E-24    2.19420539597935E-22     1.6558406739712195E-20   1.1343990947413223E-19   3.8797978533636143E-19
6.0E-6                    -3.5596903778293784E-23  -2.2717418306015683E-21  8.22488879783747E-21     1.4435761633836005E-20   -4.565723479565494E-19   1.3103858066704979E-18   1.3213883106399657E-22   -4.026371394633682E-21   1.1564906849164503E-19   3.888512952249905E-19    -1.4840567009273812E-20
6.5E-6                    -1.4401535128880637E-22  -9.721067105615453E-21   -2.5899382523638098E-21  2.361068317844399E-20    3.368824880397381E-18    -3.747011501342699E-19   2.683998038424807E-22    -6.38949283555852E-21    3.52823723196166E-19     -2.7020964304044838E-19  -2.06681933612701E-18
7.0E-6                    -3.518879825289512E-24   -6.392450761469131E-21   -4.9565343593172293E-20  -1.520361929989315E-19   6.489086017447865E-18    -6.315023220878047E-18   -2.589176155643353E-22   9.10485078815126E-21     3.108735083834214E-19    6.340415138500351E-20    7.147735513107667E-19
7.499999999999999E-6      8.638124835259314E-22    3.244701975412147E-20    -4.45041248287732E-20    -4.1867365152894225E-19  -7.073237069908107E-18   1.3816767754464494E-20   -1.7374179525310555E-21  3.6270966550884074E-20   -1.631808426501928E-18   4.91024566773686E-18     1.230694795527703E-17
8.0E-6                    1.0793129534791391E-21   8.31589672149085E-20     1.0971965882149446E-19   7.869125925569096E-20    -3.2874338793935E-17     2.270277174065052E-17    -1.309168167572065E-21   1.2711251346293527E-20   -4.5351417143277644E-18  5.5140481254045885E-18   3.7697598190963265E-18
8.5E-6                    -3.3773290663791977E-21  -4.724415860662879E-20   1.0972576524362458E-19   1.003113572016341E-18    -2.040442142728516E-17   -1.799455904287257E-18   6.299534934555152E-21    -1.085507689642634E-19   5.464926600214564E-18    2.4807918473029217E-18   -3.7840530972410705E-17
9.0E-6                    -8.771550729061347E-21   -5.535980632078399E-19   -6.604408280835031E-19   -2.1567882339805884E-18  5.103718584048197E-17    -1.0984281299594544E-16  1.583046168601121E-20    -1.8119600074808442E-19  4.1959282871968564E-17   4.7594949488083546E-17   3.101385162054179E-18
9.499999999999999E-6      6.306459725396699E-21    -7.045507982422336E-19   -2.3178934255584087E-18  -1.2553725289427353E-17  8.662287145781782E-17    -1.1729297244801137E-16  -3.687872625081116E-22   1.4529121043254346E-19   5.807531189484601E-17    1.552497943656483E-16    2.1604333629723704E-16
9.999999999999999E-6      4.116385199280157E-20    1.1442132147955733E-18   -3.893770194306488E-18   -2.1746479446825777E-17  5.727685917597258E-18    1.164917785833534E-16    -5.344909667579149E-20   8.826894232381115E-19    -3.569407914937601E-17   2.1430145076428186E-16   3.0208964439039695E-16
1.05E-5                   9.300352199922611E-21    2.942914602439038E-18    -3.2598568354386406E-18  -2.6765687169482582E-17  -1.1707355153378716E-16  2.0535125693616252E-17   -4.165854136293666E-20   8.332579797712678E-19    -1.3727913509819727E-16  3.6866685189912027E-16   -5.174516576359453E-17
1.1E-5                    -1.575718463092487E-19   -4.838495294803692E-18   -4.5552907372705724E-18  -7.208844457004603E-17   -3.855653945526124E-16   -1.2143744032592406E-15  2.184272074696615E-19    -1.7154613923285314E-18  1.5807929397544097E-16   1.4377137589893232E-15   8.024955175028786E-17
1.15E-5                   -2.119968806204816E-19   -2.4219669101553517E-17  -3.996467359926638E-17   -2.344626526135759E-16   -1.3010768865743151E-15  -2.8096016462240485E-15  5.873461145201257E-19    -4.545191499821162E-18   1.0296947228715092E-15   3.947395682972536E-15    2.6789851803438714E-15
1.2E-5                    3.067518760431872E-19    -2.6126665805741162E-17  -1.58857875850293E-16    -5.492374220832001E-16   -2.5109830272971467E-15  -3.049079737463115E-15   2.724556233470186E-19    2.0760484783481792E-18   1.879256552832532E-15    7.053737610830634E-15    7.500846284012E-15
1.2499999999999999E-5     9.822867939864805E-19    1.3938293834987104E-17   -3.3332424093881807E-16  -1.0959621892255695E-15  -1.5771842645040754E-15  -4.581672153246749E-15   -9.209308768584771E-19   2.3841333818182656E-17   2.183077775402967E-15    1.2381616822643797E-14   1.0916432959434678E-14
1.3E-5                    -2.8461762350979815E-19  8.914924267812685E-18    -4.748507234947775E-16   -2.3546978952381005E-15  2.3216608670242713E-15   -1.730075265331554E-14   2.975393160557932E-19    3.73297314787969E-17     3.3236935982829613E-15   3.0728095382585606E-14   1.5430831398472647E-14
1.35E-5                   -4.5262334658794174E-18  -2.359714721337403E-16   -8.618182806077755E-16   -5.489688297904597E-15   1.1975065617983287E-16   -5.002969241460862E-14   9.651563916522321E-18    4.065339914176732E-18    8.799134743739433E-15    7.707260744894634E-14    4.204519268080034E-14
1.4E-5                    -5.997415166529358E-18   -7.546023920831403E-16   -2.530453264878556E-15   -1.2313835193998197E-14  -2.6736638164083823E-14  -9.927468264891141E-14   2.424969222951064E-17    -3.149919243599557E-17   2.2444663998153046E-14   1.5635398353522214E-13   1.1927153401452385E-13
1.45E-5                   4.560003661195503E-18    -1.2211248787840365E-15  -6.670116188604393E-15   -2.5681698473767214E-14  -8.404275196983648E-14   -1.626733012207852E-13   2.602058278687882E-17    1.1695398436842374E-16   4.911853490543333E-14    2.81318483299772E-13     2.5591309399250956E-13
1.4999999999999999E-5     1.673698915662586E-17    -1.471719902568498E-15   -1.3955384290871732E-14  -5.1757822370199655E-14  -1.3848285486431204E-13  -2.908301084515438E-13   1.6510605349466895E-17   5.759472373748416E-16    1.0108800092514273E-13   5.337602199595451E-13    4.654966461012943E-13
1.55E-5                   -1.4520928584101903E-17  -2.6892061179399316E-15  -2.6716755704986013E-14  -1.0494102561592362E-13  -1.4499947357818637E-13  -6.302530966141229E-13   8.22271464867775E-17     1.1363816213119333E-15   2.0472055269423482E-13   1.085381421975664E-12    8.653664068427581E-13
1.6E-5                    -1.1472495199881777E-16  -7.920327810768875E-15   -5.353691329473546E-14   -2.1457222784762006E-13  -1.6093909348460536E-13  -1.3739971566341557E-12  3.6987256578136827E-16   1.615945396895953E-15    4.011184398282172E-13    2.1397169024607556E-12   1.735622341080302E-12
1.6499999999999998E-5     -1.9760523660205604E-16  -2.056467160797827E-14   -1.1168876259463186E-13  -4.3100923303981615E-13  -4.4026092978219347E-13  -2.6523240075074735E-12  9.097293622974E-16       2.8928297590880856E-15   7.514371532762741E-13    3.9590576399471316E-12   3.4502975832155447E-12
1.7E-5                    -1.4092107275393944E-16  -4.2125491009158754E-14  -2.2894344832313794E-13  -8.300815993597347E-13   -1.2918965189542989E-12  -4.593231175216539E-12   1.5881686743181682E-15   7.120493730245855E-15    1.370458545254558E-12    7.066444818762855E-12    6.410763095926806E-12
1.75E-5                   -1.305591440067982E-16   -7.456022287853368E-14   -4.533980846116078E-13   -1.5252552837397749E-12  -2.7161639002085956E-12  -7.675883746857108E-12   2.705778605451095E-15    1.6487160113611408E-14   2.4886990075942324E-12   1.2244316675446774E-11   1.1096394600725247E-11
1.8E-5                    -8.441641561293648E-16   -1.3196939213196888E-13  -8.670302155495636E-13   -2.710033863784049E-12   -4.333244094410291E-12   -1.2947480522436275E-11  5.8110000458034374E-15   3.3472152417133786E-14   4.486853429035118E-12    1.9914093016067734E-11   1.8015499507640592E-11
1.85E-5                   -2.8945470996853575E-15  -2.550098750471668E-13   -1.5899786150703626E-12  -4.72384073391025E-12    -6.0885608506947006E-12  -2.1404179341894172E-11  1.3713950369579903E-14   6.509424567260626E-14    7.793877218070885E-12    2.937366687140337E-11    2.7327879966684482E-11
1.8999999999999998E-5     -6.045421339967511E-15   -5.086108952872762E-13   -2.8006295614216967E-12  -8.023637745995741E-12   -9.142306623499504E-12   -3.267475240095677E-11   2.96371042484804E-14     1.2643613930834832E-13   1.257281850089805E-11    3.8971218695398334E-11   3.8418964993843035E-11
1.95E-5                   -9.910588056242623E-15   -9.569368602527136E-13   -4.807322290848173E-12   -1.287844615361213E-11   -1.5421286597428812E-11  -4.4379279925141625E-11  5.774765025370024E-14    2.379696632145563E-13    1.8332532729474476E-11   4.72820074582407E-11     4.989436028408665E-11
1.9999999999999998E-5     -1.670120095488495E-14   -1.6540905383934829E-12  -8.062220660433258E-12   -1.8858786714630848E-11  -2.5425095856116714E-11  -5.327367252543648E-11   1.0718794070387558E-13   4.260132211653677E-13    2.386110329367831E-11    5.388069958226133E-11    5.996268387347089E-11
2.05E-5                   -3.353155194409144E-14   -2.7022055161184974E-12  -1.2872152450009828E-11  -2.467701416480194E-11   -3.643103984911746E-11   -5.7287093947466844E-11  1.9818335166377036E-13   7.415590122312674E-13    2.773579392610371E-11    5.867655265507067E-11    6.686199473305843E-11
2.1E-5                    -7.107699453468453E-14   -4.337756645582266E-12   -1.8857283467666604E-11  -2.887746746843212E-11   -4.3769001724780893E-11  -5.631420177232908E-11   3.6627923176787327E-13   1.2817649428038912E-12   2.9048903228495667E-11   6.073632546889079E-11    6.923699225434079E-11
2.1499999999999997E-5     -1.3924636175232378E-13  -6.880621520374852E-12   -2.480191514563092E-11   -3.084493828306423E-11   -4.462484967510666E-11   -5.109213483223105E-11   6.621132009699381E-13    2.165771543244143E-12    2.766598374090238E-11    5.828050671512008E-11    6.637554045552502E-11
2.2E-5                    -2.456933945071137E-13   -1.0437685019322008E-11  -2.9428608132523575E-11  -3.080709470705843E-11   -4.03634997044854E-11    -4.1834270999258816E-11  1.1465525211728436E-12   3.451830566079687E-12    2.3867629775785718E-11   4.992831633838859E-11    5.796747532492732E-11
2.2499999999999998E-5     -4.048292079744676E-13   -1.4566530180192848E-11  -3.2405012075029686E-11  -2.857618321766972E-11   -3.446569592724779E-11   -2.8221660595246987E-11  1.883109713361164E-12    5.064569722336242E-12    1.78826175198743E-11     3.551565842793295E-11    4.3564568080452727E-11
2.3E-5                    -6.593176673970388E-13   -1.8331020457280478E-11  -3.4134065115208995E-11  -2.27510079531244E-11    -2.82026363399824E-11    -1.0102273656198147E-11  2.9313971185932254E-12   6.809533141094659E-12    9.69622024769507E-12     1.536904703314203E-11    2.2597914466396117E-11
2.35E-5                   -1.0984832912173554E-12  -2.0873661234760283E-11  -3.4270975364588245E-11  -1.1912067444812798E-11  -1.9026825595524075E-11  1.2679752983467755E-11   4.337717236073005E-12    8.4527031449236E-12      -9.126108702498392E-13   -1.0983459114573764E-11  -5.0306956803747275E-12
2.4E-5                    -1.840152687681792E-12   -2.1967893645137823E-11  -3.0997260506083805E-11  3.4207868231174203E-12   -3.4915600102319218E-12  4.1167860923118846E-11   6.0978303209651E-12      9.771698018442499E-12    -1.4132509857808553E-11  -4.496374102572392E-11   -3.9095229395555706E-11
2.45E-5                   -2.963247741096397E-12   -2.1855007334906107E-11  -2.2478825038688707E-11  2.0789179477889144E-11   1.890940375586429E-11    7.721940193873573E-11    8.069044841011455E-12    1.054325625293432E-11    -2.974801986440091E-11   -8.788648480643652E-11   -8.031924612831762E-11
2.4999999999999998E-5     -4.449881121504998E-12   -2.0462738136195223E-11  -8.789725971550604E-12   3.8111650502254007E-11   4.5457850897325364E-11   1.220001123841816E-10    9.877793635998868E-12    1.051662238986265E-11    -4.718929050087809E-11   -1.4018844820990664E-10  -1.3095567193456103E-10
2.55E-5                   -6.227196998931012E-12   -1.6985498703501928E-11  8.480326766682435E-12    5.5576175523936277E-11   7.333809154680518E-11    1.7469084850046445E-10   1.0949826325584814E-11   9.41721417638745E-12     -6.636149356795977E-11   -2.0166578795286832E-10  -1.9326962291052498E-10
2.6E-5                    -8.281352929385212E-12   -1.0500892033160556E-11  2.8506321493059127E-11   7.498811903722397E-11    1.0213290302302874E-10   2.329316062805838E-10    1.073732795175982E-11    6.997518009673754E-12    -8.832312867732685E-11   -2.716904422881884E-10   -2.674402455323505E-10
2.65E-5                   -1.0647666092381084E-11  -9.591357429698726E-13   5.207542042249501E-11    9.780484040637591E-11    1.3330208042842766E-10   2.9442458044825345E-10   9.007783020792658E-12    3.1670007197229526E-12   -1.1449656654882644E-10  -3.4856077996585853E-10  -3.5122895924516647E-10
2.7E-5                    -1.3152682121529411E-11  1.0761634161917774E-11   7.984560603704869E-11    1.24351378858969E-10     1.6840263714577417E-10   3.579573115198545E-10    5.9245345566994386E-12   -1.8406304375367072E-12  -1.4486415628953764E-10  -4.289838865872513E-10   -4.41266320095003E-10
2.7499999999999998E-5     -1.5140840198016116E-11  2.394062634895866E-11    1.1096474987695056E-10   1.544331415951574E-10    2.0847359098989275E-10   4.230181556102713E-10    1.8180857220424223E-12   -7.492249961316882E-12   -1.772184961171942E-10   -5.09000056132675E-10    -5.341089413410181E-10
2.8E-5                    -1.5606342951571442E-11  3.892624010878145E-11    1.4443064856903887E-10   1.8747567359283676E-10   2.541767304984134E-10    4.884781879201352E-10    -3.1218372392332253E-12  -1.336651279136233E-11   -2.0840889000550178E-10  -5.8557299157158E-10     -6.264355599133902E-10
2.8499999999999998E-5     -1.376919784783665E-11   5.673437427911964E-11    1.8094572712110134E-10   2.215417918448172E-10    3.050450256740374E-10    5.511985032982613E-10    -8.918846456641292E-12   -1.968905062963556E-11   -2.3609477796235854E-10  -6.567505228204787E-10   -7.149462350477859E-10
2.9E-5                    -9.55915796648899E-12    7.792932670689283E-11    2.217203065244294E-10    2.530249465588677E-10    3.582066348123306E-10    6.054336659367893E-10    -1.562645082345131E-11   -2.736349581267059E-11   -2.591540187800772E-10   -7.200038217445165E-10   -7.958594385220509E-10
2.95E-5                   -3.494863786360554E-12   1.0226446927548972E-10   2.652095076281788E-10    2.783789821453732E-10    4.08402463685822E-10     6.438145388821479E-10    -2.3174792845315193E-11  -3.726155832393826E-11   -2.7681668921891353E-10  -7.706818801381552E-10   -8.636995529306275E-10
2.9999999999999997E-5     3.88479527425469E-12     1.2933175535264624E-10   3.064195408399937E-10    2.961347017029835E-10    4.4961017436776095E-10   6.596393201965168E-10    -3.146011474409282E-11   -4.939822516896024E-11   -2.8790930570767597E-10  -8.021512928783962E-10   -9.104981639623274E-10
3.05E-5                   1.2434787896184363E-11   1.5898602561191222E-10   3.4036731134172055E-10   3.064277363932961E-10    4.767295407567753E-10    6.485704258324777E-10    -4.054099045172564E-11   -6.286209439635737E-11   -2.9083516884918145E-10  -8.069815559440881E-10   -9.268550159641467E-10
3.1E-5                    2.2376374097983665E-11   1.9076024450032656E-10   3.655242083331297E-10    3.084843002450275E-10    4.861609350802734E-10    6.079520869462041E-10    -5.063595785328866E-11   -7.65615633172315E-11    -2.837396314586633E-10   -7.77751915598502E-10    -9.041020731215882E-10
3.15E-5                   3.406244309557483E-11    2.2304727757257847E-10   3.8274311040430977E-10   2.9947739448612233E-10   4.754102701349322E-10    5.345167088110252E-10    -6.183594115359471E-11   -8.991933646919989E-11   -2.644208500654389E-10   -7.072536992519297E-10   -8.352163808547462E-10
3.2E-5                    4.7797583543042385E-11   2.530906769902198E-10    3.909269190490596E-10    2.761437719842837E-10    4.42151751241175E-10     4.23241987970595E-10     -7.378257605186265E-11   -1.0275364518772511E-10  -2.3030200053668782E-10  -5.887943186596587E-10   -7.138418466416151E-10
3.25E-5                   6.369217203862132E-11    2.776450157280001E-10    3.8491953652293846E-10   2.364669379604379E-10    3.8316255624890475E-10   2.6875921710379655E-10   -8.563117732874173E-11   -1.145967526031403E-10   -1.7880597646754262E-10  -4.168559463660045E-10   -5.334339068834491E-10
3.2999999999999996E-5     8.14830730025843E-11     2.9352751166985033E-10   3.5829647197013193E-10   1.7907632703182288E-10   2.9411338543245774E-10   6.76865925557679E-11     -9.63406228932998E-11    -1.243515010269591E-10   -1.0793124878704127E-10  -1.876481861510596E-10   -2.8820740859269004E-10
3.35E-5                   1.0039813242018361E-10   2.9786622477507037E-10   3.0767673011396494E-10   1.0213756718971584E-10   1.7108222510966784E-10   -1.804703891433987E-10   -1.0499905202021252E-10  -1.3067325351604682E-10  -1.6689124704768665E-11  1.0079861938349547E-10   2.5175362674690033E-11
3.4E-5                    1.191420167063227E-10    2.8831439390688247E-10   2.336001438175298E-10    4.273664936136084E-12    1.291435598683862E-11    -4.739818780655252E-10   -1.1085323191223331E-10  -1.3248496738373578E-10  9.467572319170535E-11    4.487475905746583E-10    4.0723828309428303E-10
3.45E-5                   1.360265016059604E-10    2.631914613519242E-10    1.374712225265745E-10    -1.1399777113108116E-10  -1.7792345660251114E-10  -8.093664385236563E-10   -1.13029557945949E-10    -1.2889161369452948E-10  2.2469120813301126E-10   8.546123992920586E-10    8.566074962956493E-10
3.5E-5                    1.4932442137419825E-10   2.2133042529897748E-10   1.846471315730623E-11    -2.5136865299566764E-10  -3.972306073031458E-10   -1.180802690895261E-9    -1.1029977870987866E-10  -1.1864144278007082E-10  3.709253908638176E-10    1.3144782877395938E-9    1.37027468695768E-9
3.5499999999999996E-5     1.577990658684752E-10    1.6177127711820805E-10   -1.2654395406490452E-10  -4.0795330998917477E-10  -6.420342705585145E-10   -1.5796223142539727E-9   -1.0123791901907567E-10  -9.997941803183195E-11   5.30300418740233E-10     1.8215062714277844E-9    1.9422119047505705E-9
3.6E-5                    1.6094002699996183E-10   8.359926073362014E-11    -3.008072259543915E-10   -5.841017384878889E-10   -9.11469614388076E-10    -1.995086069661851E-9    -8.469275706951591E-11   -7.127922705464239E-11   6.990517771273584E-10    2.3652040077849174E-9    2.5613629534355996E-9
3.65E-5                   1.5841410895071225E-10   -1.4081335283812975E-11  -5.05592449002416E-10    -7.759888083712635E-10   -1.2041917724820766E-9   -2.4156211072579564E-9   -6.011262433341999E-11   -3.1811229556855503E-11  8.722831997952624E-10    2.9304495677831856E-9    3.2104374762984874E-9
3.7E-5                    1.4907794021403556E-10   -1.3216886026617267E-10  -7.388732541708531E-10   -9.740162348694773E-10   -1.514322869454947E-9    -2.828598550863238E-9    -2.7368836015105292E-11  1.823960879789529E-11    1.0435820237112293E-9    3.4967806016201066E-9    3.866006668931618E-9
3.75E-5                   1.306665559116229E-10    -2.7143395038787153E-10  -9.945530138333216E-10   -1.1671907136864107E-9   -1.8294246159421712E-9   -3.2183847651406925E-9   1.3750118865282915E-11   7.85133268643686E-11     1.2051235633878748E-9    4.038858213697379E-9     4.499679376260378E-9
3.7999999999999995E-5     1.0072549484187123E-10   -4.319814562863955E-10   -1.2628104874248102E-9   -1.3482941113396467E-9   -2.131911578218974E-9    -3.564620168195177E-9    6.381626790981212E-11    1.4906617839088946E-10   1.3481654180021243E-9    4.5280868844669225E-9    5.079704654141536E-9
3.85E-5                   5.794540429235354E-11    -6.12379499440748E-10    -1.5322201077830188E-9   -1.5131679220915308E-9   -2.402044357175591E-9    -3.842361628832457E-9    1.234301676502318E-10    2.3006833289309476E-10   1.4635551083228512E-9    4.9341338106594234E-9    5.5720690894274645E-9
3.9E-5                    2.5720658246965547E-12   -8.088738827329565E-10   -1.7922363831824678E-9   -1.6552537868391387E-9   -2.619975031600608E-9    -4.023643159409116E-9    1.9248120116585142E-10   3.208645942433034E-10    1.542155183942827E-9     5.2254505255096174E-9    5.940785128076136E-9
3.95E-5                   -6.435777832506523E-11   -1.0150619281790902E-9   -2.0334048200518204E-9   -1.762558831433049E-9    -2.7666268902654824E-9   -4.079506238695647E-9    2.696261905891409E-10    4.192626180443523E-10    1.5753475272281818E-9    5.369487956720761E-9     6.148239219315265E-9
3.9999999999999996E-5     -1.419630076320474E-10   -1.222103330881194E-9    -2.2448559644340692E-9   -1.8205735481437405E-9   -2.8249195755516865E-9   -3.982775188015545E-9    3.524328026842032E-10    5.214988638681864E-10    1.5555303934493363E-9    5.333788102604712E-9     6.156439983791362E-9
4.0499999999999995E-5     -2.2970724565501194E-10  -1.4193960714747954E-9   -2.411877114784071E-9    -1.8173381127432691E-9   -2.7816426400678306E-9   -3.711567704916532E-9    4.379792041955164E-10    6.226356305760184E-10    1.476295575169773E-9     5.087901632161367E-9     5.928771849942756E-9
4.1E-5                    -3.268914503081184E-10   -1.5956782084589279E-9   -2.516410288744181E-9    -1.745423837128356E-9    -2.6282548909119314E-9   -3.251446005178494E-9    5.232294049414526E-10    7.17081173580854E-10     1.3323814320846108E-9    4.6051677312929906E-9    5.43156723498832E-9
4.15E-5                   -4.320981681047441E-10   -1.7402858140052629E-9   -2.5401550161624814E-9   -1.6001585304629263E-9   -2.3592392369262036E-9   -2.5942620728453764E-9   6.047602476812166E-10    7.992200242703941E-10    1.1199305548733621E-9    3.864093941353272E-9     4.6359103492519786E-9
4.2E-5                    -5.429375344892539E-10   -1.8437750420250248E-9   -2.4675303702159535E-9   -1.3771684066509277E-9   -1.9690846476796622E-9   -1.7353543137334418E-9   6.781578241647784E-10    8.639824846102962E-10    8.371715622303842E-10    2.8498976924471432E-9    3.5203423594346945E-9
4.2499999999999996E-5     -6.559682091394845E-10   -1.8972327119075616E-9   -2.2865249984683287E-9   -1.0719112443755476E-9   -1.4505891634798343E-9   -6.730144138863758E-10   7.377897592899428E-10    9.068199234980675E-10    4.849870911029037E-10    1.5562581417761422E-9    2.0737712588944783E-9
4.2999999999999995E-5     -7.666263269224061E-10   -1.8908363632964185E-9   -1.987852904577103E-9    -6.814982606879651E-10   -7.96366463941611E-10    5.884734021294531E-10    7.772703192938663E-10    9.229276950747679E-10    6.703970996817604E-11    -1.3398057275202502E-11  2.9725224363271957E-10
4.35E-5                   -8.692030556217665E-10   -1.8132341312532084E-9   -1.5641499042440728E-9   -2.0725568151937466E-10  -3.0995510587724203E-12  2.034903662816019E-9     7.902855421093473E-10    9.064817537838984E-10    -4.1018699275038866E-10  -1.8452144969251075E-9   -1.7952955669326399E-9
4.4E-5                    -9.569590030119132E-10   -1.6525884745180332E-9   -1.0104442921637893E-9   3.4403102887345413E-10   9.239008066172834E-10    3.6402539516542034E-9    7.712704113440218E-10    8.508223459676205E-10    -9.3706315113273E-10     -3.9140571255566635E-9   -4.1761541159331455E-9
4.45E-5                   -1.0223691466951692E-9   -1.3985120765135556E-9   -3.258018882746803E-10   9.610934030148954E-10    1.968429284351195E-9     5.36691479981787E-9      7.157355826869713E-10    7.495547329372574E-10    -1.5003875097852607E-9   -6.182032481190378E-9    -6.802263803691454E-9
4.4999999999999996E-5     -1.0574872314497412E-9   -1.0436674090126667E-9   4.848760679084513E-10    1.6301848202754466E-9    3.1041443842022393E-9    7.166606875220431E-9     6.202925823534021E-10    5.976669382449086E-10    -2.083290232364955E-9    -8.596994589953816E-9    -9.614086102319481E-9
4.5499999999999995E-5     -1.0544817687269584E-9   -5.846259538370412E-10   1.4098235419667882E-9    2.336056298538026E-9     4.296866547145498E-9     8.981608568259005E-9     4.824447717856721E-10    3.92015496682105E-10     -2.6657523965902074E-9   -1.1092102678705936E-8   -1.2535654346026647E-8
4.6E-5                    -1.0063213919193594E-9   -2.216859975982599E-11   2.4303584054413403E-9    3.061177438316312E-9     5.506516018428833E-9     1.0746951135762336E-8    3.0030553704803833E-10   1.3140718728225015E-10   -3.225810363839254E-9    -1.358697608927219E-8    -1.5475520535561266E-8
4.65E-5                   -9.073822373966651E-10   6.387832660775207E-10    3.5215805145157727E-9    3.784286261329565E-9     6.688295167691523E-9     1.2393392985638565E-8    7.263005542401637E-11    -1.8310206576168268E-10  -3.741079349727403E-9    -1.5990182403474517E-8   -1.8328191502945263E-8
4.7E-5                    -7.536918060743366E-10   1.3891407704300207E-9    4.653519244765629E-9     4.479843326731782E-9     7.794073772069086E-9     1.3849722095916189E-8    -2.0053417696558945E-10  -5.475112382643546E-10   -4.189834662450397E-9    -1.820231162208591E-8    -2.0976273381065812E-8
4.7499999999999996E-5     -5.427893140945651E-10   2.2148309191463706E-9    5.792150580195219E-9     5.119285385637152E-9     8.774631116913164E-9     1.5043617567973968E-8    -5.168217635539021E-10   -9.54323802048102E-10    -4.551321545079338E-9    -2.0119099846274848E-8   -2.3293682160727888E-8
4.8E-5                    -2.735495096052664E-10   3.0953924511029258E-9    6.8995265682772085E-9    5.67381707207436E-9      9.582177911854362E-9     1.5902551620267318E-8    -8.70812259075618E-10    -1.3928585193409508E-9   -4.805954249153932E-9    -2.163466946131717E-8    -2.5149885357019735E-8
4.85E-5                   5.363593548672779E-11    4.003467644648437E-9     7.933167588474932E-9     6.11723990642133E-9      1.0172011229974486E-8    1.6356913550414583E-8    -1.2539448191263332E-9   -1.8503794573439932E-9   -4.93620253786755E-9     -2.2645033569248793E-8   -2.641485968996466E-8