% Model:              Untitled.mph
% Version:            COMSOL 6.0.0.405
% Date:               Jul 16 2025, 18:24
% Dimension:          1
% Nodes:              401
% Expressions:        11
% Description:        Point graph
% Time (s)                Displacement field, Y component Displacement field, Y component Displacement field, Y component Displacement field, Y component Displacement field, Y component Displacement field, Y component Displacement field, Y component Displacement field, Y component Displacement field, Y component Displacement field, Y component Displacement field, Y component
0                         1.4714678454047723E-37   4.046536551590795E-36    1.904537844947495E-33    4.893831169828338E-33    1.382480045314498E-31    -9.327615549040872E-35   -2.9913070157228322E-34  -1.1419272093379282E-32  -2.256133467640879E-31   -5.288561359967812E-31   -8.76842822899351E-31
5.0E-7                    -1.3084983981284483E-29  -4.2519424791743895E-28  -2.182749269510027E-25   2.5174853949145183E-25   -3.465743059818275E-23   3.763689815611752E-27    1.1948131756977435E-26   1.3246272167277417E-24   -3.3428510034777263E-23  2.0312397400485113E-22   1.2739912111524997E-22
1.0E-6                    -1.2085345809015345E-28  -1.4016237499654186E-27  -5.18209264295097E-25    -1.055205027220527E-23   1.3561341619525466E-22   9.439320566188035E-26    2.404726107061012E-25    2.8631010339611887E-24   1.9822379127602812E-22   -9.854564934143857E-23   -3.996398862873762E-23
1.5E-6                    1.1567115192300152E-27   1.1032069299641179E-26   5.369304445294458E-24    4.381027293064268E-23    3.5306765943420404E-23   -5.224837072502056E-25   -1.1400479346988232E-24  -3.3673220715693507E-23  -1.2293277261766128E-22  -4.582994876492712E-21   -1.9243229526186505E-21
2.0E-6                    -4.8266354479103395E-27  -2.0900041213460618E-26  -1.7812165708181694E-23  -4.833304649760276E-23   -2.400893829300419E-21   1.1699780965938455E-24   2.4140413773265485E-24   1.291167568104823E-22    -1.1833400001990912E-21  1.566635892191228E-20    1.1278308929417005E-20
2.4999999999999998E-6     7.911091916820266E-27    -5.720208929714392E-26   1.9776323675486143E-23   -2.0524974649596675E-22  5.6379887664423455E-21   -5.019400622109278E-25   -4.0499430892468444E-24  -2.200438100769338E-22   -1.7943511997613342E-21  3.784169150412374E-21    -2.822471221131081E-20
3.0E-6                    1.5763745520503757E-26   3.017766185793194E-25    4.53200659226668E-23     3.3147254263821197E-22   4.846648475495354E-21    -3.015536713101938E-24   1.0027603407759188E-23   -7.753020634488935E-23   7.246358401132581E-21    -6.477018457255331E-20   1.8360292013286178E-20
3.5E-6                    -9.26924476323658E-26    7.917342901483854E-27    -1.3910151830077852E-22  1.4949850738703884E-21   -1.3408621107863325E-20  6.663166707399592E-24    -6.626319493685042E-25   8.895995484088444E-22    2.1686379332065663E-20   -7.931072883869152E-20   5.085231483600365E-20
4.0E-6                    6.370841455653837E-26    -2.4244434467649303E-24  -9.937351167782574E-23   -2.2063756414999887E-21  -3.491972709863642E-20   3.940459437403991E-24    -9.037200440687693E-23   -5.266048046789821E-22   -4.294833770711088E-20   2.2419647764187938E-19   -1.2860232348844788E-19
4.5E-6                    4.65563420679476E-25     2.8204958640699997E-24   7.685477697573779E-22    -1.1792780441966192E-20  -3.358015566611351E-20   -5.571164277667001E-23   1.1544520273107482E-22   -2.9255844037776663E-21  -1.566477353078768E-19   7.085833158977097E-19    1.8781323389615586E-19
4.9999999999999996E-6     -8.833673448415502E-25   1.3421011845215394E-23   -1.2096668776487916E-22  1.146385359754859E-20    3.0894126236256375E-19   9.984318718795919E-24    3.6392672092137565E-22   3.375661446399323E-21    2.017439410656071E-19    -5.100081267561618E-19   -7.231697829181519E-20
5.5E-6                    -1.617237969501257E-24   -2.673204358259654E-23   -3.391160629690805E-21   8.502218568495508E-20    4.768074575465117E-19    4.542109495712512E-22    -6.189034519451446E-22   1.2114755945131142E-20   9.563492566348286E-19    -3.115058997466458E-18   -1.0622809408490992E-18
6.0E-6                    5.238921031224631E-24    -6.719296834435469E-23   2.2419855415276797E-21   7.388557613179113E-21    -1.3226643427557611E-18  -4.398710692586472E-23   -1.1410283888912486E-21  -2.56131915077593E-20    -5.165997649531885E-19   -1.2264581261028135E-18  1.0491323249799128E-18
6.5E-6                    4.9813304640802704E-24   1.6681002784332625E-22   1.308471536335772E-20    -4.041416895593273E-19   -2.2305290188946183E-18  -2.8566302990747468E-21  2.5049050101023074E-21   -4.465063051924232E-20   -5.763237597794224E-18   6.621584614257224E-18    1.763646949395658E-18
7.0E-6                    -2.2895544247648597E-23  3.5341656587340325E-22   -8.335992684660993E-21   -4.408094751268473E-19   4.4231367079068244E-18   -1.2412805449967189E-21  2.2674216823702944E-21   1.3671722697220572E-19   -5.43295272244329E-18    1.1031244823033665E-17   -3.1455525943482825E-18
7.499999999999999E-6      -1.9055247305061608E-23  -8.044098188870009E-22   -5.202409989421913E-20   1.0848654476415647E-18   9.657448974406662E-18    1.332707352042472E-20    -1.0675842654299966E-20  1.824987709617756E-19    1.6449187254232936E-17   -1.2738463947516163E-18  -3.9363954064644265E-19
8.0E-6                    8.297696249618476E-23    -1.9273872589453468E-21  2.0400781605922194E-20   2.982595532910886E-18    -4.376047418256893E-18   1.6612288275868634E-20   -1.1633069996086942E-21  -5.509633833292519E-19   4.3530058090928676E-17   -3.5540342692957584E-17  -7.03613424737706E-19
8.5E-6                    9.580078884427843E-23    2.8237171476321826E-21   2.195023663370581E-19    4.320344444139408E-19    -1.6810130870024324E-17  -3.975663020910441E-20   4.964508985845383E-20    -9.96721159108505E-19    -4.556390924545868E-18   -5.943712841190119E-17   -3.285667979441521E-17
9.0E-6                    -2.4835788268476754E-22  9.792711457937304E-21    -9.064277144486993E-21   -8.698828869904295E-18   1.2567239507178137E-17   -1.0814104072592904E-19  4.626792676873826E-21    1.5204628151334762E-18   -1.8175317974253716E-16  -1.4892283236236536E-17  -4.476092459544843E-17
9.499999999999999E-6      -4.8516267426740765E-22  -4.906386863108831E-21   -7.660563987551377E-19   -1.1158945944391864E-17  6.426941812808411E-17    1.8361518299119005E-20   -2.1310217196283078E-19  4.6420052015715145E-18   -2.987332582612038E-16   6.151639222034577E-17    1.9617045470898386E-17
9.999999999999999E-6      5.140781990637848E-22    -4.1447904929988184E-20  4.6094759824816295E-20   1.9346815963908875E-17   1.1013445387878005E-16   4.1772856836865345E-19   -1.5979027758028377E-19  -3.667864646340153E-18   5.792754594939706E-17    1.3356689680650682E-17   3.044843580658287E-17
1.05E-5                   2.0761505215330155E-21   -1.7159174420988853E-20  2.8461945200412435E-18   7.214073068664268E-17    2.148792009908412E-16    5.243472792244844E-19    6.26590693294113E-19     -2.4143110473897533E-17  8.485055002932982E-16    -2.0737772919255005E-16  -2.169183359034095E-16
1.1E-5                    5.111530982776301E-23    1.3066119036979314E-19   8.287082605079667E-19    4.962622574828972E-17    4.488462974215804E-16    -7.179494264600463E-19   1.0931888862103757E-18   -1.51587202617065E-17    8.607069044481998E-16    -5.198029289935941E-16   -8.30871870226103E-16
1.15E-5                   -6.83618248599392E-21    1.8623085821963648E-19   -6.57405693331872E-18    -1.0917910813719629E-16  8.01035906442484E-16     -2.954708973276817E-18   -9.300937017165953E-19   5.323468064860908E-17    -1.3434901141833133E-15  -1.2255930497339964E-15  -1.8210455314557094E-15
1.2E-5                    -6.77780202246182E-21    -2.3376716990080214E-19  4.361401971286766E-18    -1.5356187293074375E-16  1.3985827811772233E-15   -2.014995862108935E-18   -4.459306981739598E-18   6.466183480164793E-17    -4.791979334154608E-15   -2.8841313393415575E-15  -2.7650282497678175E-15
1.2499999999999999E-5     1.4578744506714272E-20   -8.224406898900486E-19   4.128005422945271E-17    3.5088617681159527E-16   3.2431496051558323E-15   7.0378971278298E-18      -3.147632399167167E-18   -1.743259313501237E-16   -5.450741934616247E-15   -4.586038455463926E-15   -3.519483409858539E-15
1.3E-5                    3.6855115869640494E-20   -1.8302533373052512E-19  3.365123354266952E-17    1.1849843476567407E-15   9.479155175184467E-15    1.736764608121526E-17    6.193752128486055E-18    -5.28044331920476E-16    -7.05061752465879E-16    -4.459136838753899E-15   -8.022756512168111E-15
1.35E-5                   -5.890868867895907E-23   2.1560947219482914E-18   -5.977287733104524E-17   1.1906911810606274E-15   2.5026545464667556E-14   3.0475768047912406E-18   1.257219488131872E-17    -4.109302978815285E-16   4.498652786317331E-15    -7.340268919518097E-15   -2.4987107921677553E-14
1.4E-5                    -1.0721052117197327E-19  2.990165521258452E-18    -1.4353955631826508E-17  9.015285741586892E-17    5.207573457623884E-14    -5.0946793290001887E-17  -1.069575203389781E-18   3.185645657262547E-16    -2.1515636778818693E-15  -2.889277899404181E-14   -5.6471003239600446E-14
1.45E-5                   -1.3626906903137233E-19  -2.0026348794322186E-18  4.897258689544925E-16    5.970905688310575E-16    8.93130582612207E-14     -8.553521194035278E-17   -3.89237059104237E-17    1.8974375734425363E-16   -3.0161640806076976E-14  -7.591585538937346E-14   -9.235781035350653E-14
1.4999999999999999E-5     1.4158489394863926E-19   -9.70089360994394E-18    1.1279700621152483E-15   6.451953678135749E-15    1.5448850033243787E-13   2.4646539585365764E-17   -9.503030379962394E-17   -3.09409371060203E-15    -7.395391645921983E-14   -1.2797364551850813E-13  -1.499259250501759E-13
1.55E-5                   6.2418272599535185E-19   -6.969709613583495E-18   8.868283729834349E-16    1.6939626644892616E-14   3.3043626202737353E-13   2.7314960953582363E-16   -1.4648479432048896E-16  -9.060041227527895E-15   -1.1912511390256891E-13  -1.9217488548651137E-13  -3.3161617543636475E-13
1.6E-5                    4.627084044797024E-19    1.519588684537579E-17    -4.753439973747138E-17   2.6355861637893146E-14   7.779573832336851E-13    2.9909297642565E-16      -9.957308579552175E-17   -1.2357704444573655E-14  -1.8149552757994947E-13  -3.962407634653783E-13   -7.794248376645747E-13
1.6499999999999998E-5     -1.2052699315533899E-18  4.1155695913336535E-17   1.5561045660318896E-15   3.5238299013481507E-14   1.6504461714554908E-12   -3.334345046823031E-16   1.0700860211902126E-16   -1.0026118911558662E-14  -3.4363373155652636E-13  -9.16281819718883E-13    -1.519875617298708E-12
1.7E-5                    -2.702506174710348E-18   2.9212495635650366E-17   9.46965240273211E-15     6.730812732811486E-14    3.0048231359235633E-12   -1.2452931743797906E-15  2.2525245428299837E-17   -1.6088037068932506E-14  -7.14117999877567E-13    -1.7269835105003432E-12  -2.5069467968008993E-12
1.75E-5                   9.778564020459834E-19    -4.93662705895969E-17    2.1729820097136656E-14   1.729920510092824E-13    5.013836522501105E-12    -9.679018799191868E-16   -1.4684297635912584E-15  -5.997696113795291E-14   -1.329651646740224E-12   -2.662658075520644E-12   -4.115937594915928E-12
1.8E-5                    1.050897677679676E-17    -1.3209818165195877E-16  3.048616811243383E-14    4.006426582574677E-13    8.57440848302161E-12     1.3001576424363857E-15   -4.630819240550348E-15   -1.5284972787848465E-13  -2.196495932668464E-12   -4.119461745287227E-12   -7.595550677330891E-12
1.85E-5                   1.1703651966260008E-17   -2.8771815952594283E-17  3.676806439474478E-14    7.497249615259162E-13    1.5620586442280066E-11   3.3186840823381934E-15   -6.846092727197773E-15   -2.6921481138050275E-13  -3.5914042500232045E-12  -7.55790041177974E-12    -1.450540778939234E-11
1.8999999999999998E-5     -1.0984362589298956E-17  4.0045581462607314E-16   6.869625416032556E-14    1.183302956820608E-12    2.8085656518193666E-11   9.176375980434631E-16    -5.105126822546645E-15   -4.1796600905102743E-13  -6.30578248885607E-12    -1.4504460877993908E-11  -2.518553140052452E-11
1.95E-5                   -3.0621857686283916E-17  8.714801445675268E-16    1.7479970750619652E-13   1.7798751101249981E-12   4.5719595640833406E-11   -6.616382667259879E-15   -4.4957440078159794E-15  -7.429324342512353E-13   -1.1304914248460233E-11  -2.4568686523523062E-11  -3.7920328617705826E-11
1.9999999999999998E-5     2.4961404695375642E-17   6.726970586345069E-16    3.8954314072139483E-13   2.946604049057997E-12    6.487706558101026E-11    -1.3348012821134293E-14  -2.1501174650186886E-14  -1.452532798952266E-12   -1.8855191657746034E-11  -3.5014389552527954E-11  -5.0087765261722305E-11
2.05E-5                   1.6225610978386642E-16   -3.7255600769843566E-16  7.202626682660178E-13    5.421636309130125E-12    8.006568045022771E-11    -1.2104941836568003E-14  -6.939770975995727E-14   -2.5928285031507987E-12  -2.7959556606438375E-11  -4.303047847354859E-11   -6.002368706077117E-11
2.1E-5                    2.250999106509739E-16    -6.946412119012267E-16   1.1969479057494829E-12   9.8703796460025E-12      8.700912323361453E-11    -4.2792852205400804E-15  -1.3939598557524687E-13  -4.093906846247942E-12   -3.674446988650617E-11   -4.809076168508976E-11   -6.712362150779614E-11
2.1499999999999997E-5     8.396506379975325E-17    2.520794821146254E-15    1.9410796993446325E-12   1.6253871233607503E-11   8.413387747255489E-11    -3.0902359200033024E-15  -2.13552710256174E-13    -6.2970896873273155E-12  -4.335905826097156E-11   -5.121666761163662E-11   -7.01278290041636E-11
2.2E-5                    2.425422039582999E-17    1.0569182053789568E-14   3.1863266712198867E-12   2.341220576900708E-11    7.164781851597655E-11    -2.7734224034329206E-14  -3.123966947747188E-13   -1.0175222582600725E-11  -4.648770217000341E-11   -5.2168987869947494E-11  -6.640148532336386E-11
2.2499999999999998E-5     6.919687613205913E-16    2.0903922694058046E-14   5.278550087459382E-12    2.92148906726336E-11     5.0447769591264465E-11   -9.598986469617023E-14   -5.213694942891284E-13   -1.623806231601015E-11   -4.5372792034355044E-11  -4.8702693895934806E-11  -5.38782632911455E-11
2.3E-5                    2.3348171766820842E-15   2.8953294093931794E-14   8.658070727221466E-12    3.1394678708291966E-11   2.2203535489783803E-11   -2.1800473170066771E-13  -9.56970367566557E-13    -2.2841451033118667E-11  -3.99596130928419E-11    -3.913052719729972E-11   -3.3404398555108994E-11
2.35E-5                   4.411967878336735E-15    3.560305736284465E-14    1.3583927541833655E-11   2.88679902279111E-11     -1.097661844312301E-11   -3.874567902130823E-13   -1.7204327906097027E-12  -2.6339096994379484E-11  -3.1205384729475795E-11  -2.4527004396743527E-11  -8.075084609700057E-12
2.4E-5                    6.8091344352340356E-15   5.830724845069929E-14    1.9424054993854298E-11   2.273453731525898E-11    -4.832943838060609E-11   -5.825687613138922E-13   -2.886829236261483E-12   -2.4052928578442902E-11  -2.0672906088082042E-11  -7.1543782897080224E-12  2.027864627985912E-11
2.45E-5                   1.1706253730293261E-14   1.3605666518220911E-13   2.4107301905974766E-11   1.5746524097976378E-11   -9.148721075752464E-11   -8.107126438990352E-13   -4.460821315847652E-12   -1.726298270383204E-11   -8.980730742141942E-12   1.3154451454471899E-11   5.3562146933277666E-11
2.4999999999999998E-5     2.361239001784677E-14    3.10050037304516E-13     2.4865091954471353E-11   1.0017065329182357E-11   -1.4290381140367794E-10  -1.1995721922711541E-12  -6.241870306957773E-12   -1.0426913526318493E-11  5.685770026617262E-12    4.0007290813096595E-11   9.592095207468192E-11
2.55E-5                   4.76721879443381E-14     5.805664306962238E-13    2.029082875209444E-11    4.7835169925489934E-12   -2.0365111811701473E-10  -2.0434444522410396E-12  -7.783181371315405E-12   -6.892152831400164E-12   2.7140410707388892E-11   7.732029445427423E-11    1.4988855575011303E-10
2.6E-5                    9.021787927648016E-14    8.980018522187293E-13    1.1799410938884088E-11   -3.3439727969121347E-12  -2.7332546133132105E-10  -3.6564150993508824E-12  -8.69229006391216E-12    -5.674619109780833E-12   5.861040535525921E-11    1.2542994949966862E-10   2.1435693236455065E-10
2.65E-5                   1.6417415933826167E-13   1.2631722573652019E-12   2.604499252923285E-12    -1.7502193120933244E-11  -3.5099150595938096E-10  -6.008915071335709E-12   -9.063110218470524E-12   -2.7016039254278914E-12  1.0014723474037354E-10   1.8058808249627413E-10   2.860745306137607E-10
2.7E-5                    2.955996276013688E-13    1.8824344050103196E-12   -4.928816043468228E-12   -3.7803265786508593E-11  -4.345292238218762E-10   -8.414429651131938E-12   -9.392669726668305E-12   5.313842275149705E-12    1.4844829975144499E-10   2.3809504262156957E-10   3.6208370478577213E-10
2.7499999999999998E-5     5.248072459649402E-13    3.13871349180152E-12     -1.0689793974421058E-11  -6.143189404209994E-11   -5.19248846409227E-10    -9.690795763878808E-12   -9.800725995266538E-12   1.8781870107772482E-11   1.9909827942551255E-10   2.9557303841735284E-10   4.398950907165364E-10
2.8E-5                    9.020385458537541E-13    5.2115409315707E-12      -1.5883095818783328E-11  -8.542410456376724E-11   -5.988124774577065E-10   -8.90939902586928E-12    -9.419631625459639E-12   3.645114944728347E-11    2.4894390600938306E-10   3.5329100138921053E-10   5.158391470942843E-10
2.8499999999999998E-5     1.4895685741624343E-12   7.606030683384428E-12    -2.1784970303360645E-11  -1.0929131020420608E-10  -6.681030163406591E-10   -6.198183803421143E-12   -6.9463464485525714E-12  5.738861149082018E-11    2.967846533461276E-10    4.119878662284721E-10    5.847162393857905E-10
2.9E-5                    2.3843377987063334E-12   9.16572608727491E-12     -3.0014201568983186E-11  -1.3494800493103399E-10  -7.241910878531833E-10   -2.7794026367263696E-12  -1.997386662471683E-12   8.103431380558022E-11    3.427549485964757E-10    4.708921762518374E-10    6.418314801476333E-10
2.95E-5                   3.744743399880934E-12    8.790775791710178E-12    -4.292694364141012E-11   -1.6417397388488225E-10  -7.639317044923435E-10   -2.1232561493159965E-14  4.301957393314213E-12    1.0591007957790199E-10   3.8758214499771596E-10   5.273749935208398E-10    6.848058105705983E-10
2.9999999999999997E-5     5.744452469846911E-12    6.294455565737968E-12    -6.194877428176091E-11   -1.9634302977242532E-10  -7.815475549306715E-10   1.7121138208418237E-12   1.0356275724806398E-11   1.2958268737659363E-10   4.317548971933281E-10    5.77358504475965E-10     7.125276060413717E-10
3.05E-5                   8.365848490565954E-12    2.5541084732722134E-12   -8.517202728108101E-11   -2.2876242185100002E-10  -7.695126082703864E-10   3.3319402134219854E-12   1.5704542213381856E-11   1.5063151638780297E-10   4.74036073964395E-10     6.154451887547807E-10    7.221653111456397E-10
3.1E-5                    1.1095427308265941E-11   -1.214316854584192E-12   -1.080129017552963E-10   -2.589053867519076E-10   -7.211752022360998E-10   6.170504035531873E-12    2.1426234527990023E-11   1.7019946906068878E-10   5.100095783477866E-10    6.351404104675884E-10    7.073698368851803E-10
3.15E-5                   1.2826551619835444E-11   -4.363782483012448E-12   -1.2743316696882645E-10  -2.8565996796954616E-10  -6.310354689077342E-10   1.0833413807613633E-11   2.9007772908023425E-11   1.9066968962391974E-10   5.323843630987155E-10    6.297830656041574E-10    6.591494418423201E-10
3.2E-5                    1.2287959171294598E-11   -7.143277685226717E-12   -1.4504854085252583E-10  -3.082901994945225E-10   -4.922502855129435E-10   1.6783157249755944E-11   3.9040646930370696E-11   2.1257619382814466E-10   5.334788852003929E-10    5.936480592160532E-10    5.681611438305032E-10
3.25E-5                   8.876916871108979E-12    -1.0348161060519878E-11  -1.6493065222776168E-10  -3.2485993407987094E-10  -2.957011833000534E-10   2.2894577836276572E-11   5.105098332926512E-11    2.333620291463295E-10    5.079762974648207E-10    5.222769845816214E-10    4.2664487664611035E-10
3.2999999999999996E-5     3.229198461636609E-12    -1.4720626298806193E-11  -1.8818116837575738E-10  -3.320257817992987E-10   -3.3779323431845797E-11  2.8370388291017706E-11   6.422853174636697E-11    2.493314248261407E-10    4.5362922355755725E-10   4.1202321608240723E-10   2.2954499150655257E-10
3.35E-5                   -3.1036768688254988E-12  -2.047721467670465E-11   -2.103474886663704E-10   -3.2570146224331616E-10  2.9410598395808E-10      3.324929314579959E-11    7.788701711852483E-11    2.5799167740587644E-10   3.696382175544717E-10    2.5953994170245005E-10   -2.4845328025695543E-11
3.4E-5                    -8.734513394892909E-12   -2.7099331423799463E-11  -2.243066377050578E-10   -3.0142789927753297E-10  6.802681149169038E-10    3.822906380552834E-11    9.118995142253615E-11    2.57815581501299E-10     2.545560160739591E-10    6.175860506450427E-11    -3.347636062207239E-10
3.45E-5                   -1.342195624036888E-11   -3.346676116795357E-11   -2.250492798926463E-10   -2.549833802452258E-10   1.1132559070497054E-9    4.409386868631417E-11    1.0287909555104035E-10   2.4645979841520056E-10   1.0566666961491011E-10   -1.8347243186108282E-10  -6.956850071050175E-10
3.5E-5                    -1.8208647444002195E-11  -3.83870854022208E-11    -2.1155019779350155E-10  -1.839001858912025E-10   1.583277080845201E-9     5.1211877889655665E-11   1.117690926652519E-10    2.2060525195256065E-10   -7.983480838407117E-11   -4.761940654571129E-10   -1.1015212333571678E-9
3.5499999999999996E-5     -2.4710071260568863E-11  -4.132952958317868E-11   -1.851371623799428E-10   -8.83758951396197E-11    2.083080267328685E-9     5.932680894492062E-11    1.1758421816442362E-10   1.7775927301039983E-10   -3.031129027644351E-10   -8.131597784674765E-10   -1.5453002351983171E-9
3.6E-5                    -3.4084021554479593E-11  -4.28703319532076E-11    -1.4730950432203168E-10  3.006771351873854E-11    2.6040155581091354E-9    6.756324949566263E-11    1.2094703770106392E-10   1.1722595026418613E-10   -5.628875161439759E-10   -1.1874895424209955E-9   -2.0186395613281238E-9
3.65E-5                   -4.623077818763629E-11   -4.4387026762444834E-11  -9.900848074863585E-11   1.7066191358179657E-10   3.1313120701668774E-9    7.454252207599209E-11    1.221617313984718E-10    3.893125620709851E-11    -8.558636555399236E-10   -1.5893685560663826E-9   -2.510330816451616E-9
3.7E-5                    -5.962150056381117E-11   -4.7043704799077596E-11  -4.065299170489588E-11   3.332711497552609E-10    3.6420320006260776E-9    7.867508670406393E-11    1.1995538790153182E-10   -5.7753822536231675E-11  -1.1772642668061561E-9   -2.00710155948836E-9     -3.0049065733795046E-9
3.75E-5                   -7.195052215224355E-11   -5.0761912736436295E-11  2.8138892438475204E-11   5.162776632611498E-10    4.106120823561975E-9     7.867385804671827E-11    1.116102291205558E-10    -1.733022908640886E-10   -1.5201981178133219E-9   -2.427632733266424E-9    -3.4818301869899414E-9
3.7999999999999995E-5     -8.130972217548742E-11   -5.404818798758945E-11   1.0868363601032608E-10   7.156225355555444E-10    4.489379883077457E-9     7.404088441476103E-11    9.449971529500494E-11    -3.06864222415305E-10    -1.8741911878984346E-9   -2.8362087087232123E-9   -3.915585883121934E-9
3.85E-5                   -8.702806842989796E-11   -5.48902948917633E-11    2.0232383091269044E-10   9.263362408850212E-10    4.757251371659556E-9     6.512101322018748E-11    6.761099601403885E-11    -4.5672676958258033E-10  -2.224749695820647E-9    -3.2155846382599865E-9   -4.276789155124935E-9
3.9E-5                    -8.948469390747456E-11   -5.1924227086170517E-11  3.08903972684513E-10     1.1442721346437258E-9    4.878084896794954E-9     5.2600078536998155E-11   3.179325395345069E-11    -6.213285505551848E-10   -2.5550456396098042E-9   -3.545584508474944E-9    -4.534111937529498E-9
3.95E-5                   -8.916139803438261E-11   -4.4780031425796466E-11  4.260003193626588E-10    1.3655992846615722E-9    4.8242266903138765E-9    3.6794633267725686E-11   -1.1224938034267873E-11  -7.982458667865525E-10   -2.848267103265822E-9    -3.803574173879624E-9    -4.656332357372807E-9
3.9999999999999996E-5     -8.587327906085243E-11   -3.3386338145582605E-11  5.49576116018119E-10     1.5843950472428425E-9    4.570724584847674E-9     1.72535283247174E-11     -6.011948083058737E-11   -9.816627472226188E-10   -3.088163113505651E-9    -3.965515456601804E-9    -4.613846663416975E-9
4.0499999999999995E-5     -7.87294162111266E-11    -1.7156852799691818E-11  6.754593921030952E-10    1.7903418516524567E-9    4.09403992223189E-9      -7.044559327031831E-12   -1.1471888738255407E-10  -1.161848363872497E-9    -3.257519226234843E-9    -4.006766434232597E-9    -4.37962508747514E-9
4.1E-5                    -6.659582347071762E-11   4.9091480394134485E-12   8.004559945929317E-10    1.9681557831812272E-9    3.3734161097742235E-9    -3.7004055867562675E-11  -1.75832926811582E-10    -1.3280722745371294E-9   -3.3370115355843545E-9   -3.902602997881058E-9    -3.930088544987135E-9
4.15E-5                   -4.8663255770825393E-11  3.3244542420390556E-11   9.221360836509423E-10    2.099615122516957E-9     2.394430367208885E-9     -7.26530036069131E-11    -2.442187981832E-10      -1.4718579055487837E-9   -3.3064621004823344E-9   -3.6294989472428784E-9   -3.2463817851839365E-9
4.2E-5                    -2.4962629018192205E-11  6.690156362840198E-11    1.0372421734711369E-9    2.167814522725399E-9     1.1517523188173942E-9    -1.1283647436263439E-10  -3.193281740290158E-10   -1.5869167405991338E-9   -3.147527512868E-9       -3.1675828185181466E-9   -2.31634685820846E-9
4.2499999999999996E-5     3.4672660212616083E-12   1.0380332126903463E-10   1.140027615394402E-9     2.160979008124604E-9     -3.501033266357199E-10   -1.5565065156628417E-10  -3.9885570056406845E-10  -1.6662209262268058E-9   -2.8453121624676097E-9   -2.502925449723582E-9    -1.1370340137170325E-9
4.2999999999999995E-5     3.5315565884401774E-11   1.4183823173950145E-10   1.2223315280659548E-9    2.0723685501092973E-9    -2.0957595571421794E-9   -1.9933204002796004E-10  -4.795083702782868E-10   -1.699894430512465E-9    -2.388159853992777E-9    -1.6282244435461435E-9   2.833420218939666E-10
4.35E-5                   7.059895807590539E-11    1.797232427853523E-10    1.2755543715164978E-9    1.8961396800574802E-9    -4.055690483940081E-9    -2.4285259913845846E-10  -5.581555312692106E-10   -1.6762381784597115E-9   -1.7673342121377185E-9   -5.426733870407044E-10   1.9252653655353276E-9
4.4E-5                    1.1183074365725768E-10   2.1684067090734688E-10   1.2923213283286397E-9    1.623607870074259E-9     -6.182772711989341E-9    -2.8568442210811904E-10  -6.321225832491033E-10   -1.584678384446579E-9    -9.782988082616308E-10   7.468576930422167E-10    3.759145438540522E-9
4.45E-5                   1.6316168913310083E-10   2.523181266914171E-10    1.265759906589703E-9     1.244245151636442E-9     -8.41272788789496E-9     -3.2700882289054487E-10  -6.984839266550015E-10   -1.4178981467378915E-9   -2.3200573321797685E-11  2.2230862423408246E-9    5.745648453163176E-9
4.4999999999999996E-5     2.274297785032857E-10    2.8434020812721514E-10   1.1874595967965696E-9    7.505354416126473E-10    -1.0668837444437362E-8   -3.652100767185115E-10   -7.533933601913356E-10   -1.1717247871679679E-9   1.0872869434271802E-9    3.856439477918684E-9     7.83397642606223E-9
4.5499999999999995E-5     3.031305688097732E-10    3.103413117942202E-10    1.0474546414961964E-9    1.41879784805978E-10     -1.2866651690087132E-8   -3.981505875593101E-10   -7.922419873523495E-10   -8.435489682345822E-10   2.3339196260447163E-9    5.60605344834888E-9      9.960078168111815E-9
4.6E-5                    3.837833304329158E-10    3.2778050013010577E-10   8.376342372920014E-10    -5.753548175203891E-10   -1.4915259875906088E-8   -4.238607296372387E-10   -8.102804210557439E-10   -4.312923287127815E-10   3.690106306739666E-9     7.422639735772779E-9     1.2047662406667874E-8
4.65E-5                   4.6039370553823455E-10   3.3471750031000184E-10   5.558964405611892E-10    -1.3899341460044189E-9   -1.6717022175713835E-8   -4.408878992405492E-10   -8.029551175357393E-10   6.557143265494867E-11    5.123059722964392E-9     9.250486302697594E-9     1.4012103393770567E-8
4.7E-5                    5.252271347568877E-10    3.29836163653815E-10     2.071710270986215E-10    -2.2867784673350667E-9   -1.8170125340248274E-8   -4.480008073062753E-10   -7.659107303523897E-10   6.43442032398104E-10     6.594164003962812E-9     1.1027363236758593E-8    1.576460770849628E-8
4.7499999999999996E-5     5.740902090473708E-10    3.1223747299933157E-10   -1.994098968435407E-10   -3.246191058832001E-9    -1.917451268552295E-8    -4.436084530657098E-10   -6.951394585554445E-10   1.2927845951699414E-9    8.058918294306772E-9     1.268375264783854E-8     1.7214702528754477E-8
4.8E-5                    6.056518392604812E-10    2.8140942317607744E-10   -6.542321449761598E-10   -4.2431870570424755E-9   -1.963708224094035E-8    -4.2542857255289E-10     -5.87386816624846E-10    1.9989415661275104E-9    9.467213657742208E-9     1.4143762687358349E-8    1.8271757640366045E-8
4.85E-5                   6.18826542907288E-10     2.373296924310169E-10    -1.1485763717347375E-9   -5.248404904018973E-9    -1.947331286446326E-8    -3.9066542923461817E-10  -4.4044235821241673E-10  2.7447473342273127E-9    1.0764392767341269E-8    1.5328680117764544E-8    1.8847415193867326E-8