% Model:              Untitled.mph
% Version:            COMSOL 6.0.0.405
% Date:               Jul 17 2025, 02:25
% Dimension:          1
% Nodes:              401
% Expressions:        11
% Description:        Point graph
% Time (s)                Displacement field, Y component Displacement field, Y component Displacement field, Y component Displacement field, Y component Displacement field, Y component Displacement field, Y component Displacement field, Y component Displacement field, Y component Displacement field, Y component Displacement field, Y component Displacement field, Y component
0                         -6.0084036429026E-38     8.339011097778371E-38    -2.6256794327214545E-35  1.875807453763327E-34    -2.1081995353721965E-33  -5.5458089604714604E-33  1.2561868947929765E-36   8.191239826361313E-33    3.514749857994146E-32    3.042026886311962E-32    1.7327496224608307E-33
5.0E-7                    -1.444202471458741E-28   -3.1917799041637845E-28  3.738136054475452E-27    -2.7938655056558996E-26  2.867244003431805E-25    8.349034970665236E-25    -5.230842119652386E-29   -1.20962503857207E-24    -5.131079215247639E-24   -4.2078340807821856E-24  -5.365150172859143E-26
1.0E-6                    9.171673399133195E-28    1.9952744989258365E-27   -4.308356254691776E-27   3.9022731210082164E-26   -2.161064309330286E-25   -1.4512203208941334E-24  -8.044453509717923E-28   1.9036509232961E-24      6.755379637501069E-24    5.309996196353565E-24    -5.250733900108135E-25
1.5E-6                    -3.0652559986308895E-27  -5.8700845492205765E-27  -3.61211818454114E-27    -1.6594596793286485E-26  -6.9800297958931E-25     1.6575304626819215E-24   2.390305158273315E-27    -2.299669806286771E-24   -3.9978464792914575E-24  -5.6762803035658925E-24  1.8165738887659715E-24
2.0E-6                    4.8460753052820175E-27   -2.089969689136226E-27   4.2235474705016315E-26   -2.152058657918049E-25   3.6607501102874066E-24   2.6289850567064616E-24   3.768281800029822E-27    -2.33153623077956E-26    -1.0637856059582747E-23  -3.7588979605355734E-24  4.786909780257969E-24
2.4999999999999998E-6     2.913610805808263E-27    4.5671066034434905E-26   -1.4336504812363174E-25  9.95970328236149E-25     -8.569795267770662E-24   -2.2032657935909373E-23  -2.5325736084131697E-26  5.601810700983894E-24    6.489653794859186E-23    1.1483120811688757E-22   -1.377383678074199E-23
3.0E-6                    -5.087405666858799E-26   2.3817344493776604E-26   1.864524066615196E-25    -1.4728484062721614E-24  3.190086194094812E-24    7.921406456041664E-23    -2.978373808219224E-26   -1.522223128305493E-23   -2.303023900869133E-22   -2.570880111358059E-22   6.855356293898324E-23
3.5E-6                    2.514375949872252E-25    -2.0523972732074583E-25  1.0836822174279172E-25   -4.666041141998694E-24   2.6200557106438752E-23   -3.081045959632436E-22   2.8094898346698565E-25   2.0350487210444074E-23   9.076628308129566E-22    -2.5132838673865614E-22  4.056444211448013E-22
4.0E-6                    -1.4569472768971273E-25  -9.749260442917447E-25   2.562865190844995E-25    9.293574430120495E-24    2.8813430055342004E-23   2.5480672797818516E-22   1.4037916004004383E-25   2.784817974341491E-22    -1.3372093995697357E-21  3.021855239580788E-21    8.865125884369336E-22
4.5E-6                    -2.6587984181752766E-24  1.0432175069396475E-24   -4.075154027690149E-24   4.6506221147226554E-23   -5.6589621817997E-22     1.4352162464508523E-21   -2.2182170575463084E-24  2.9522274719965426E-22   -7.776197284271289E-22   2.442351053374902E-21    -1.1692176970312516E-21
4.9999999999999996E-6     3.032301296780341E-24    9.746708124305826E-24    -1.6457807329862346E-24  -1.0953979017379408E-22  9.636745345056401E-22    -4.8031184056656745E-21  -1.7840320461200108E-24  4.363922148332898E-22    1.2644966849857556E-20   -2.964686325877056E-20   -4.5358688370572834E-21
5.5E-6                    2.2199371371890426E-23   5.262105883540551E-26    4.1717827482003813E-23   -3.7608502800983383E-22  2.885961891533744E-21    -1.0979799200446895E-20  1.500221725908169E-23    7.593144663254027E-21    1.0073120558936594E-20   3.8581348919567474E-23   3.586482968941736E-20
6.0E-6                    -1.0058450113845266E-23  -5.0679890004074116E-23  -1.9384877713760832E-23  7.455112712576543E-22    -1.4960209632154362E-20  1.1832969035220591E-20   2.16816171927305E-23     2.1378281933365226E-20   1.9228407465439985E-21   2.509636423531411E-19    1.2145757950802314E-19
6.5E-6                    -1.5523296272126744E-22  -2.971614658928203E-23   -3.0842529456528432E-22  1.501459535059861E-21    -1.3209270076036279E-20  -1.9643433795969123E-21  -7.674078676963035E-23   2.31427400006384E-20     1.157556402023444E-19    3.440659786903412E-19    -8.568490301745267E-22
7.0E-6                    -6.628822977048906E-23   1.8342725756578495E-22   1.221515195737794E-22    -7.286355110603338E-21   9.61914786324495E-20     -2.753561951737736E-19   -1.918400049198101E-22   1.2092483391492527E-19   4.50771369695405E-19     -3.890229442109657E-19   -1.3666534552188158E-19
7.499999999999999E-6      8.535747900929732E-22    2.125914727783704E-22    1.696337682221769E-21    -1.6334921772458165E-20  3.189757572957138E-20    -6.298932266237759E-19   2.2359248963562146E-22   6.188205597435998E-19    1.0735448825735542E-18   -7.871308939559572E-19   1.5461778658680504E-18
8.0E-6                    1.1772624707067639E-21   -4.0883148687058464E-22  -1.3716744604197485E-21  1.3392192832602698E-20   -6.396768618521673E-19   -3.348351648650912E-19   1.1925345001078611E-21   1.4656194175351272E-18   3.555535549812755E-18    5.01767871389516E-18     6.0714765834944044E-18
8.5E-6                    -3.05340242990656E-21    -3.2458581133160305E-22  -1.3007329384756201E-20  7.735927823764983E-21    -6.50863334172294E-19    -1.2019755098859256E-18  2.640564039574425E-22    3.0967794832219566E-18   1.2300927646792641E-17   2.423088455600782E-17    8.683673981312951E-18
9.0E-6                    -8.308282389612763E-21   1.8159211408931913E-21   -6.560299684852283E-21   -3.053928610137779E-19   1.9765384742665183E-18   -9.81059977699953E-18    -4.965519587792179E-21   1.1279781164351577E-17   3.344299731164045E-17    4.894056338962331E-17    6.3964799298623426E-18
9.499999999999999E-6      4.499294996204038E-21    -1.698450405527981E-21   3.6474079625949097E-20   -9.09836005727304E-19    1.7949683499341022E-18   -2.844822734782406E-17   -6.7606443542001415E-21  4.005208203059251E-17    8.691454058987335E-17    7.49438036158092E-17     3.264398772014853E-17
9.999999999999999E-6      3.6863808043704024E-20   -1.9293814570029918E-20  -3.364477790685388E-20   -1.5230649489953005E-18  -1.3479633581812456E-17  -5.1033978422750217E-17  1.2063615027443721E-20   1.1348060888241874E-16   2.5189251057289907E-16   2.2735564802132297E-16   1.8560013829406322E-16
1.05E-5                   2.138912792710074E-20    -1.3021268314231064E-20  -4.54499156464916E-19    -4.517369790403649E-18   -3.433485168877559E-17   -1.0738866600111324E-16  4.013922029759286E-20    2.998321869379802E-16    7.345506857474245E-16    8.50379601619826E-16     5.472841094925764E-16
1.1E-5                    -1.0384884255401266E-19  6.831835358099001E-20    -9.403932227081863E-19   -1.802191528781285E-17   -2.360497909502357E-17   -3.1979927719086027E-16  5.0949440612391756E-21   7.949068448667134E-16    1.9687324565543044E-15   2.3682733416003344E-15   1.0649055631637988E-15
1.15E-5                   -1.776783411943368E-19   2.0857293069406182E-20   -1.015195763367073E-18   -5.2737595034938474E-17  -2.441990899310568E-17   -8.526854268036018E-16   -1.2772978555447014E-19  2.0382591358287894E-15   4.945320347405466E-15    5.534004178140874E-15    1.993636108564025E-15
1.2E-5                    1.1501250993098908E-19   -6.6867951905183995E-19  -3.2647235165308157E-18  -1.258679805016925E-16   -2.7117800861113895E-16  -1.8910548725482295E-15  -1.5848251043378191E-19  5.052743930050511E-15    1.2234364522956687E-14   1.309780067021683E-14    5.269384089810993E-15
1.2499999999999999E-5     5.43389138690837E-19     -1.818354208487306E-18   -1.5692205401854524E-17  -3.1192954296920126E-16  -9.92491415427652E-16    -4.1033690171896495E-15  2.251491034414999E-19    1.2493006303889722E-14   3.01712048171397E-14     3.2092542402041586E-14   1.5244009327551173E-14
1.3E-5                    2.203248652955655E-21    -1.9407691811302394E-18  -4.6281115397386653E-17  -8.436240814603393E-16   -2.1155195060159667E-15  -9.463158499675405E-15   7.546942546852061E-19    3.0655111591723545E-14   7.259556239424136E-14    7.568950272258955E-14    3.697762991687479E-14
1.35E-5                   -1.8842302315506807E-18  -2.427239057282435E-18   -1.0292074182083011E-16  -2.2092520543008517E-15  -3.9690869601520606E-15  -2.153024077066912E-14   2.9172129525377224E-19   7.257042720955887E-14    1.676738988381342E-13    1.700962612902323E-13    7.666121296451858E-14
1.4E-5                    -3.0334118887731137E-18  -1.4943160221488846E-17  -2.359671629183241E-16   -5.3729336308361425E-15  -9.351051384554969E-15   -4.60394610833061E-14    -1.5489254622645718E-18  1.6395564694916734E-13   3.714725605486057E-13    3.742162160269021E-13    1.5484452499291314E-13
1.45E-5                   -2.1392355288585135E-18  -5.785921833589931E-17   -6.248569711348651E-16   -1.2674576824515172E-14  -2.4918789927204452E-14  -9.54907093233009E-14    -2.132287326249439E-18   3.557673801224539E-13    7.909414926574267E-13    8.019532180088384E-13    3.3123119455394986E-13
1.4999999999999999E-5     -5.4309418004724025E-18  -1.4036529047444233E-16  -1.6510232795841997E-15  -2.995508494154383E-14   -6.035265327498428E-14   -1.981605626975156E-13   2.322246593867963E-18    7.452035509842211E-13    1.6129919724536718E-12   1.6270998623602979E-12   7.160427192644421E-13
1.55E-5                   -2.5706200730251547E-17  -2.838391356614357E-16   -4.013464217845068E-15   -6.969258623199136E-14   -1.2997564527044554E-13  -4.0457927395554575E-13  9.795487222106868E-18    1.502480174663081E-12    3.132031127765327E-12    3.096006161863186E-12    1.4547942418644464E-12
1.6E-5                    -7.385412804735855E-17   -6.400889782654768E-16   -9.238079133414127E-15   -1.55181339334623E-13    -2.6583942553741696E-13  -7.910660977809556E-13   1.0585733213439049E-17   2.8983912685587608E-12   5.764219094161408E-12    5.603087320013164E-12    2.735352380277566E-12
1.6499999999999998E-5     -1.6805230818819147E-16  -1.6583762216826678E-15  -2.0999966190433025E-14  -3.287902034426599E-13   -5.420425518113195E-13   -1.479722442915578E-12   1.255559790393765E-18    5.31683160481226E-12     1.0002209417014999E-11   9.735773803791276E-12    4.873740321769323E-12
1.7E-5                    -3.7518657274965797E-16  -4.182864844896492E-15   -4.7402022760096185E-14  -6.694798012995307E-13   -1.0926369971407585E-12  -2.6868699181859747E-12  3.3951732879254543E-18   9.198402591520171E-12    1.6199885098392637E-11   1.5988015447506365E-11   8.381005981088007E-12
1.75E-5                   -8.661881940621651E-16   -9.627733662840164E-15   -1.0444068942091721E-13  -1.317732424271072E-12   -2.1078103400259582E-12  -4.770919999038775E-12   5.788042506544129E-17    1.4834736185671047E-11   2.4138617042691738E-11   2.408536182185922E-11    1.3756252733593001E-11
1.8E-5                    -2.001642521279205E-15   -2.08668713241478E-14    -2.2158331793838057E-13  -2.4886751931065146E-12  -3.825271157366161E-12   -8.24719953700971E-12    1.9187994236644887E-16   2.2034695486060566E-11   3.268080072079258E-11    3.260912609656273E-11    2.0950619894980298E-11
1.85E-5                   -4.538136758117896E-15   -4.449173603521115E-14   -4.5062029899505914E-13  -4.442141621052956E-12   -6.53694808898446E-12    -1.375896033048479E-11   4.131584864919484E-16    2.992728628669222E-11    4.010940686326346E-11    3.973439745329791E-11    2.897668692573672E-11
1.8999999999999998E-5     -1.0030633689227E-14     -9.425478114928695E-14   -8.784009093793942E-13   -7.392036996872819E-12   -1.053717014260897E-11   -2.189516967674962E-11   7.914582957831155E-16    3.724743455246711E-11    4.519190278806233E-11    4.456245221644218E-11    3.6287828799516175E-11
1.95E-5                   -2.1501164778864922E-14  -1.9472261043231832E-13  -1.6421832229906424E-12  -1.1373120679894115E-11  -1.5859665510955314E-11  -3.266596451437752E-11   1.6003940861697058E-15   4.301196892025816E-11    4.7828506223577454E-11   4.731418529933215E-11    4.1783877046231615E-11
1.9999999999999998E-5     -4.4583948563384687E-14  -3.8486982231959605E-13  -2.9369199017783663E-12  -1.6112467977950693E-11  -2.1863153227741628E-11  -4.487192684045278E-11   3.439718075905586E-15    4.6859183979096514E-11   4.8243658541934214E-11   4.794740801737998E-11    4.536760384322199E-11
2.05E-5                   -8.932152047590513E-14   -7.23140313233761E-13    -4.98438365738661E-12    -2.0964860118923726E-11  -2.7167674019616236E-11  -5.6252191710067306E-11  7.403404858034223E-15    4.851304565228807E-11    4.576000317214576E-11    4.528618190875746E-11    4.7318969648016365E-11
2.1E-5                    -1.7260404242086339E-13  -1.2942245268424058E-12  -7.931883495766736E-12   -2.4981669587884862E-11  -3.0400992760852615E-11  -6.476274069139749E-11   1.5540852062147636E-14   4.704685980848701E-11    3.922854105254229E-11    3.82825154536289E-11     4.729664512317061E-11
2.1499999999999997E-5     -3.2172304507118915E-13  -2.208376580707013E-12   -1.1703566221800388E-11  -2.7157174820031866E-11  -3.1236283770957133E-11  -6.955844497183488E-11   3.164023008712609E-14    4.1208572307412875E-11   2.8604519486080003E-11   2.7529683049596136E-11   4.4393131384886906E-11
2.2E-5                    -5.791195197190183E-13   -3.5706898325371295E-12  -1.5909641483920336E-11  -2.6764242563518142E-11  -3.03817968055295E-11    -7.005439679723922E-11   6.201906722261999E-14    3.061508260278689E-11    1.466217458698102E-11    1.4253348303371391E-11   3.809529271681184E-11
2.2499999999999998E-5     -1.0030438230563416E-12  -5.401329804675234E-12   -1.9912110837757754E-11  -2.3548264250560147E-11  -2.8171605172398244E-11  -6.428209587515756E-11   1.1674312122364268E-13   1.592777355810349E-11    -3.441770622904844E-12   -2.142632345282906E-12   2.8380807914240028E-11
2.3E-5                    -1.6526824141926116E-12  -7.528996066832647E-12   -2.3006714421869615E-11  -1.764668704412195E-11   -2.3475879543542844E-11  -4.9539361400699676E-11  2.1297638365409008E-13   -2.7190812945658742E-12  -2.8778700853886028E-11  -2.4382097238727003E-11  1.437932307175863E-11
2.35E-5                   -2.5555940156663528E-12  -9.53936724088577E-12    -2.4563931701798858E-11  -9.391222084530183E-12   -1.4673290126087873E-11  -2.507362924128777E-11   3.8007595178987255E-13   -2.6890811651242757E-11  -6.36752847136295E-11    -5.50971094156699E-11    -6.352396917628998E-12
2.4E-5                    -3.680394062463973E-12   -1.086916724335132E-11   -2.4047184716212925E-11  8.344704526841404E-13    -1.5876466552169295E-12  7.3342970185064E-12      6.598670943809129E-13    -5.866833989151927E-11   -1.0744930740561448E-10  -9.536893187089769E-11   -3.6266616510345034E-11
2.45E-5                   -4.940388942586347E-12   -1.1044010464622128E-11  -2.1005126013463522E-11  1.2836055648376767E-11   1.4468909514167027E-11   4.6369074193009683E-11   1.0952046031551014E-12   -9.876115974930354E-11   -1.5832021118708424E-10  -1.45439276171092E-10    -7.581127089452121E-11
2.4999999999999998E-5     -6.208433035196121E-12   -9.917597215300483E-12   -1.5154790663995174E-11  2.7066501639441823E-11   3.2886035190492646E-11   9.335901199571844E-11    1.7135495055298935E-12   -1.466906025222881E-10   -2.1597850590575346E-10  -2.0528227866930474E-10  -1.2389602497045784E-10
2.55E-5                   -7.288530561583606E-12   -7.720066474157892E-12   -6.470769158468868E-12   4.47773926624042E-11     5.5090761427758295E-11   1.5007148675837293E-10   2.5220669746979254E-12   -2.0217500409956412E-10  -2.804910373558418E-10   -2.7360269951969706E-10  -1.8002260319837171E-10
2.6E-5                    -7.85054174511275E-12    -4.848149168102256E-12   4.9520379723346205E-12   6.71937207981351E-11     8.297877148221043E-11    2.1545943543224565E-10   3.5081721673050668E-12   -2.64743470790512E-10    -3.5005544295335784E-10  -3.47180743183867E-10    -2.444937004327846E-10
2.65E-5                   -7.44161690523409E-12    -1.5418580401009306E-12  1.927515389920242E-11    9.41516067681738E-11     1.1647984248383652E-10   2.862519951107011E-10    4.6056593562309795E-12   -3.321146402746334E-10   -4.2192075919943237E-10  -4.221587977182804E-10   -3.162509539735886E-10
2.7E-5                    -5.6690479723420825E-12  2.307094279653743E-12    3.7075235812183394E-11   1.2366264038357646E-10   1.5323062772578308E-10   3.5989931272682684E-10   5.615650142005788E-12    -4.007719248359843E-10   -4.944119425508531E-10   -4.956152228823861E-10   -3.920193559667566E-10
2.7499999999999998E-5     -2.4621892449427167E-12  7.0893000826926696E-12   5.876689063873093E-11    1.530775595431663E-10    1.902225442559851E-10    4.3497636177163734E-10   6.172322013619697E-12    -4.686172314552717E-10   -5.656690641879673E-10   -5.651994938667865E-10   -4.684466978479536E-10
2.8E-5                    1.819140940015526E-12    1.3250013445835605E-11   8.358873190512298E-11    1.8068930918147395E-10   2.254154405497229E-10    5.090708731463151E-10    5.877335418983046E-12    -5.353319509428205E-10   -6.307734569016025E-10   -6.27454066339957E-10    -5.438358444485959E-10
2.8499999999999998E-5     6.5524261198152165E-12   2.1090077682185985E-11   1.0936440098767873E-10   2.06151506364423E-10     2.585873864995784E-10    5.783456251270903E-10    4.567796892401303E-12    -5.989714130101976E-10   -6.820908852695676E-10   -6.771954039357492E-10   -6.163884208475662E-10
2.9E-5                    1.1168767155509195E-11   3.0679750740474095E-11   1.3375288056916583E-10   2.2953679605317389E-10   2.9136985213964317E-10   6.394221993926288E-10    2.4643048780344982E-12   -6.532787654072234E-10   -7.124676942064479E-10   -7.086617741557926E-10   -6.813511139834756E-10
2.95E-5                   1.538547190367824E-11    4.18379129217776E-11     1.558976154902682E-10    2.5023785827697967E-10   3.254269680885223E-10    6.898018563663356E-10    -2.0376445242310387E-14  -6.896085075497011E-10   -7.167922477440741E-10   -7.166695446338186E-10   -7.313563100369114E-10
2.9999999999999997E-5     1.9249044940287556E-11   5.4142784492963964E-11   1.7661741976843114E-10   2.666458798879287E-10    3.5893530651425867E-10   7.255009224772428E-10    -2.6855399593531875E-12  -7.009305334363965E-10   -6.90626357392971E-10    -6.961377427986435E-10   -7.595582491540427E-10
3.05E-5                   2.305837076207907E-11    6.701490782607852E-11    1.9693113217976069E-10   2.764029840866695E-10    3.8499365117959037E-10   7.394928691326099E-10    -5.752609915541026E-12   -6.828139256472962E-10   -6.287293611293799E-10   -6.409393027798047E-10   -7.611531514522893E-10
3.1E-5                    2.7279353836209437E-11   7.98610647061935E-11     2.166175080984346E-10    2.7667439890665453E-10   3.951887862631298E-10    7.236347097089361E-10    -9.638444349484463E-12   -6.309567711425295E-10   -5.254253468822857E-10   -5.444558527267269E-10   -7.315165499050762E-10
3.15E-5                   3.2462669239946626E-11   9.21470740870796E-11     2.3398683880729145E-10   2.6448937442692564E-10   3.8541069870502717E-10   6.715930829275252E-10    -1.4513467813405894E-11  -5.394961199095176E-10   -3.758658766793834E-10   -4.0185917816496915E-10  -6.642635893800935E-10
3.2E-5                    3.906541902595692E-11    1.0332437091449099E-10   2.4621485760936775E-10   2.374207267363144E-10    3.5709423002564826E-10   5.789975304316158E-10    -2.009656717457221E-11   -4.0256365856385065E-10  -1.7657031648045842E-10  -2.1110973087209605E-10  -5.523989687796358E-10
3.25E-5                   4.711982959600382E-11    1.1275238866790713E-10   2.495678184941345E-10    1.9412450544611436E-10   3.119991302139586E-10    4.413267112055787E-10    -2.587006434971546E-11   -2.165704319995329E-10   7.501377887220747E-11    2.8875582959370796E-11   -3.9086582542594133E-10
3.2999999999999996E-5     5.5925190753113255E-11   1.197733516520661E-10    2.4026593789512286E-10   1.3386893871037092E-10   2.4668332194666723E-10   2.531685459448897E-10    -3.144842755152124E-11   2.006141242021084E-11    3.807320141026689E-10    3.200458949388222E-10    -1.768630117510461E-10
3.35E-5                   6.411578833788281E-11    1.2378285706266875E-10   2.1631460322078154E-10   5.5320394951837866E-11   1.532043407146256E-10    1.002611523166184E-11    -3.670706907220853E-11   3.087347515284043E-10    7.405436955375805E-10    6.639332243123437E-10    9.18721685149997E-11
3.4E-5                    7.02417089612179E-11     1.239783738165059E-10    1.783563822550886E-10    -4.3788681061109777E-11  2.492059565811762E-11    -2.8992039746449687E-10  -4.159066067418128E-11   6.505232920636608E-10    1.1506503121011987E-9    1.0587599208187618E-9    4.173581954846512E-10
3.45E-5                   7.347491014615237E-11    1.1890179761892907E-10   1.2758997353718748E-10   -1.6515660511190727E-10  -1.3917713116347592E-10  -6.457995630616863E-10   -4.5900144799805306E-11  1.0435921862674634E-9    1.6029826247308172E-9    1.4983651114939566E-9    7.992267989980894E-10
3.5E-5                    7.379584422790324E-11    1.0646105451933058E-10   6.242408989991697E-11    -3.079049211181598E-10   -3.3522088908603236E-10  -1.0539579342248922E-9   -4.935139827343814E-11   1.4815476394090849E-9    2.086385676254083E-9     1.9728771336807504E-9    1.2329378415282387E-9
3.5499999999999996E-5     7.142064542590714E-11    8.484725416101038E-11    -2.1985141684417177E-11  -4.682918005622854E-10   -5.578619609623232E-10   -1.5062592778069213E-9   -5.1793279540635635E-11  1.954402607370267E-9     2.5874161622149585E-9    2.4687419274607594E-9    1.7101752181840137E-9
3.6E-5                    6.595408313627771E-11    5.3630593788847764E-11   -1.3001886682225794E-10  -6.414260639055702E-10   -8.022134811336463E-10   -1.9889827651051645E-9   -5.318355594299763E-11   2.449563151415197E-9     3.0895000995822314E-9    2.968230710097706E-9     2.219737277096139E-9
3.65E-5                   5.607330949018136E-11    1.3689679787518608E-11   -2.614516839190094E-10   -8.228269780563146E-10   -1.0630656798523002E-9   -2.4847769806777525E-9   -5.3204721040548975E-11  2.95052415190921E-9      3.5718472472828566E-9    3.4503737720107E-9       2.7471349741280447E-9
3.7E-5                    4.012267885870258E-11    -3.43417895734815E-11    -4.11327104707717E-10    -1.007908159428852E-9    -1.332924329905479E-9    -2.975619875910463E-9    -5.0964516062814396E-11  3.4353253758504216E-9    4.009686865039875E-9     3.892751348600979E-9     3.2738545945544753E-9
3.75E-5                   1.7178619675390783E-11   -9.15887361905793E-11    -5.737089937033553E-10   -1.1901102335427218E-9   -1.601153314572647E-9    -3.4428059818612282E-9   -4.52620137908236E-11    3.8779336071552814E-9    4.375467885175307E-9     4.27162774951608E-9      3.777816645532368E-9
3.7999999999999995E-5     -1.2340665776332506E-11  -1.60453343101087E-10    -7.449771585851457E-10   -1.3600778440528678E-9   -1.8553758930264586E-9   -3.864198038279908E-9    -3.5221330039186965E-11  4.2515953668727175E-9    4.64008599936509E-9      4.560400179144543E-9     4.234476830462393E-9
3.85E-5                   -4.7076724560417556E-11  -2.4206767682408623E-10  -9.232531652509441E-10   -1.5069091851090078E-9   -2.0837655097775763E-9   -4.212865947153126E-9    -2.0579936329671576E-11  4.530280136775702E-9     4.77398918756109E-9      4.729111465130164E-9     4.617134913579209E-9
3.9E-5                    -8.575216524056227E-11   -3.3398147166869606E-10  -1.1049115534740564E-9   -1.620009962150345E-9    -2.2752114053515977E-9   -4.459010741966792E-9    -1.3498252981313881E-12  4.687066643607408E-9     4.748158668676717E-9     4.746465372130477E-9     4.896518963158641E-9
3.95E-5                   -1.278589586571263E-10   -4.3051278630472154E-10  -1.2818679279134943E-9   -1.6896342575328935E-9   -2.416639501382124E-9    -4.572698620830748E-9    2.259308488606722E-11    4.692627693985646E-9     4.5348948112074975E-9    4.582831744247024E-9     5.0409841125887535E-9
3.9999999999999996E-5     -1.7348991603920341E-10  -5.256388840243369E-10   -1.4420014790088475E-9   -1.7060749557084667E-9   -2.4910361675934733E-9   -4.524888899978381E-9    5.137601617198944E-11    4.516801428083427E-9     4.108895181873683E-9     4.212333803535755E-9     5.0181114428715384E-9
4.0499999999999995E-5     -2.2264598461297463E-10  -6.157092837430619E-10   -1.5718158182664218E-9   -1.6590896773843727E-9   -2.4796256947913263E-9   -4.2875658650319635E-9   8.464239351549195E-11    4.132217045430382E-9     3.4489679689855844E-9    3.613856670558572E-9     4.797230847579536E-9
4.1E-5                    -2.746388607841396E-10   -6.994624918433031E-10   -1.658822549995637E-9    -1.5386723053419305E-9   -2.3663165830180134E-9   -3.8350951411754575E-9   1.2140431899200308E-10   3.5168371343172676E-9    2.539708079215391E-9     2.7718897430400655E-9    4.3517925280140595E-9
4.15E-5                   -3.278299602019948E-10   -7.755709917027933E-10   -1.6922162045394615E-9   -1.336656168358211E-9    -2.1394414620950145E-9   -3.14707940257886E-9     1.6042968985773067E-10   2.654625546995833E-9     1.3727209008049852E-9    1.6778006417154372E-9    3.660824019184853E-9
4.2E-5                    -3.7963709763107916E-10  -8.401695219596214E-10   -1.662372420350478E-9    -1.0479145302839513E-9   -1.7896886824007997E-9   -2.211358998473794E-9    2.0061340852226682E-10   1.5363949383721888E-9    -5.1715767411348766E-11  3.3149276983141903E-10   2.709616856363366E-9
4.2499999999999996E-5     -4.2681377464870225E-10  -8.863427832787952E-10   -1.560505080979364E-9    -6.706429334255303E-10   -1.3083208015168885E-9   -1.0261834478894335E-9   2.408312819154704E-10    1.6200022800073033E-10   -1.7221478666612248E-9   -1.2569740330135166E-9   1.4905798146397018E-9
4.2999999999999995E-5     -4.660188022317614E-10   -9.054509532509418E-10   -1.3791692619050678E-9   -2.0615539096644032E-10  -6.890528453834062E-10   3.986141662674198E-10    2.794820052550227E-10    -1.4576593322345505E-9   -3.6140465802122624E-9   -3.0662777614850723E-9   4.9733910256984186E-12
4.35E-5                   -4.943938179738357E-10   -8.889816449302251E-10   -1.1131367684939781E-9   3.412102794794272E-10    6.790609825829602E-11    2.0415838968723187E-9    3.1430313746290184E-10   -3.300236504468531E-9    -5.689703579153291E-9    -5.0633925731782085E-9   -1.7349005032995323E-9
4.4E-5                    -5.096676690730429E-10   -8.300038580025242E-10   -7.596000156348318E-10   9.637838856902932E-10    9.533064638568893E-10    3.870627532413483E-9     3.4268149092679644E-10   -5.332004698558242E-9    -7.89898246014442E-9     -7.203519209547088E-9    -3.7041604759015883E-9
4.45E-5                   -5.096018106664433E-10   -7.23931443871906E-10    -3.174106675399179E-10   1.6497592419415275E-9    1.9491739205517033E-9    5.843737538523661E-9     3.621310668731484E-10    -7.506856258064929E-9    -1.0179721898613796E-8   -9.430128306765342E-9    -5.8649318991878126E-9
4.4999999999999996E-5     -4.911812100894334E-10   -5.684124644700658E-10   2.1337922025290838E-10   2.3821440058969258E-9    3.0306061735511255E-9    7.908103459881196E-9     3.705306612138514E-10    -9.765035141027182E-9    -1.2458303380675735E-8   -1.1675293838718996E-8   -8.166532292718524E-9
4.5499999999999995E-5     -4.5033236303743906E-10  -3.624402015876494E-10   8.300263927161883E-10    3.1382928645893145E-9    4.167374433847943E-9     9.998089702882804E-9     3.6605205713191466E-10   -1.2033492202697038E-8   -1.465117531343135E-8    -1.3860632672575276E-8   -1.0545694761340716E-8
4.6E-5                    -3.82723049991221E-10    -1.0553302204440729E-10  1.5239906229287755E-9    3.8907991492029465E-9    5.324823009232815E-9     1.2034517728734282E-8    3.4698330957887463E-10   -1.4228075140263284E-8   -1.6666795257258458E-8   -1.5898934271989553E-8   -1.2926984793960465E-8
4.65E-5                   -2.853281816734478E-10   2.0201776469617807E-10   2.2789041621473187E-9    4.6093759015259844E-9    6.464225847548647E-9     1.3927047789251602E-8    3.116250719199724E-10    -1.6256291682831276E-8   -1.8407518696394987E-8   -1.7696520944555873E-8   -1.52238890288088E-8
4.7E-5                    -1.5754954395369671E-10  5.579345963186663E-10    3.071808150413324E-9     5.262411996382679E-9     7.542649952699825E-9     1.557909305956033E-8     2.5829392941625686E-10   -1.8019881042828226E-8   -1.9772314454411012E-8   -1.9156389492899246E-8   -1.734076128455079E-8
4.7499999999999996E-5     -8.191171432561619E-13   9.569759691125466E-10    3.876511380738614E-9     5.817545126672543E-9     8.512535230352985E-9     1.689351660869813E-8     1.8541283729411147E-10   -1.9417374742166362E-8   -2.0660927038278553E-8   -2.0181767459331575E-8   -1.917558925582332E-8
4.8E-5                    1.8296477900644617E-10   1.3909334084334092E-9    4.665610153542772E-9     6.242069279226337E-9     9.321954792315657E-9     1.7777966029745532E-8    9.167619137836174E-11    -2.034711892141115E-8    -2.0978500887477386E-8   -2.067953559782457E-8    -2.0623538055679147E-8
4.85E-5                   3.9252262242289566E-10   1.8489177413841142E-9    5.409380248113956E-9     6.504257353589449E-9     9.916620279063117E-9     1.814924991741156E-8     -2.3731952947655182E-11  -2.071128456037094E-8    -2.0639666230133595E-8   -2.0563770004950746E-8   -2.1581004595438987E-8