% Model:              Untitled.mph
% Version:            COMSOL 6.0.0.405
% Date:               Jul 16 2025, 22:48
% Dimension:          1
% Nodes:              401
% Expressions:        11
% Description:        Point graph
% Time (s)                Displacement field, Y component Displacement field, Y component Displacement field, Y component Displacement field, Y component Displacement field, Y component Displacement field, Y component Displacement field, Y component Displacement field, Y component Displacement field, Y component Displacement field, Y component Displacement field, Y component
0                         -5.4636199394243405E-31  -1.4411860074012318E-31  -8.163553082363706E-33   -3.4056565581305973E-35  -2.029914412516558E-34   -4.029667419828333E-36   2.036986908361166E-37    -1.4587553085388516E-37  1.581963140908161E-33    4.396269246295072E-40    1.2753716633133353E-40
5.0E-7                    7.783493160527209E-23    4.293723806126271E-24    6.335463793096389E-25    3.4278763798871693E-26   2.5682093149348287E-26   6.8210580243283765E-28   -9.730480208043056E-29   9.642866914918212E-30    -2.903927367749914E-25   -2.564952116156098E-32   -1.8387296900275074E-32
1.0E-6                    -9.366317370373124E-23   4.716055554826996E-23    1.3724313627731158E-24   -2.062516454983945E-25   5.726400334261845E-28    -7.027851541208928E-28   2.84055888269186E-28     5.612734407834727E-29    8.900871545842244E-25    -1.5257012013111395E-31  2.4365987753947483E-32
1.5E-6                    -3.5737034093462243E-22  -8.099218424696013E-23   -5.513098988147049E-24   4.040410242813253E-25    -8.33512788128352E-26    -6.598489242264682E-27   -5.127738724156252E-28   -2.369689210108635E-28   -1.0550973465110497E-24  1.9891839060795025E-31   -1.352604133173413E-32
2.0E-6                    2.9861276094978688E-21   1.0169646801836838E-22   1.3018532326341452E-23   -2.265826265053066E-26   -2.04008370812096E-25    2.3583987797474598E-26   1.777886919328325E-27    6.875407892626778E-28    -1.0364724279188647E-23  2.693331055598222E-30    -5.823017593786829E-32
2.4999999999999998E-6     -8.241715097265087E-21   -2.3886914534055173E-21  -5.357303659945599E-23   -4.6859990063884666E-24  9.62075755747868E-25     -9.635452147799283E-27   -7.407090748284508E-27   -3.042626771929366E-27   4.8228639023998826E-23   -2.5015868516252998E-30  3.5099264669276022E-31
3.0E-6                    8.679911842668255E-21    8.442663738220081E-21    2.7647309953183906E-22   6.2821919426297205E-24   3.808333343259693E-24    -1.419815974443946E-25   8.789588237089708E-27    6.2345465525846526E-27   -3.704051291601183E-23   -5.538255234398123E-29   -1.1463063193614726E-30
3.5E-6                    -1.45486834943318E-20    4.780940279750931E-21    -4.690061401670008E-22   2.950290600900888E-23    -1.4445112097097696E-23  -6.592270516056849E-26   5.992387247821494E-26    1.3472801394109054E-26   -2.0167098673177828E-22  1.5284093586618693E-28   2.128837121442444E-30
4.0E-6                    2.1114895849921908E-20   -4.712649465173181E-20   -9.226611762897326E-22   -1.1487939936056584E-22  -3.57386080718911E-23    2.1055385898078907E-24   -2.747641385133641E-25   -6.288316960706747E-26   2.380441401779209E-22    3.146404551904072E-28    5.959848328040243E-31
4.5E-6                    1.2134530881848978E-19   -3.866306255523772E-20   4.4109714802514895E-21   -2.6321070953273797E-22  1.216915460983013E-22    -5.640283507970533E-26   -3.1859211303665096E-25  -4.087507516497628E-26   1.0211898958647027E-21   -1.2234296001941517E-27  -1.4608637139876484E-29
4.9999999999999996E-6     -5.0322515963247E-19     1.8382479813499705E-19   6.099881703524912E-21    6.8304931509673205E-22   3.2955030120017587E-22   -2.383058380793834E-23   3.0529207756247905E-24   4.226934079231937E-25    -1.4507101438946417E-21  -2.1067831268341247E-27  3.0193032846116996E-29
5.5E-6                    -5.503653167122036E-19   3.1349595222237006E-19   -2.0263958082482623E-20  1.2538367872564844E-21   -8.489323730854401E-22   -1.2251220309877787E-23  1.20317566259073E-24     3.6717116986115506E-26   -6.26968242434603E-21    7.204842819890715E-27    2.935346495017508E-29
6.0E-6                    9.93488638614447E-19     -7.81755008547398E-19    -5.339371534484683E-20   -6.071631531281804E-21   -2.6871598152578468E-21  1.7566454450796E-22      -2.3834191027547163E-23  -2.466035392683966E-24   7.646056050850238E-21    1.742148760034281E-26    -3.1571715960116797E-28
6.5E-6                    9.541399732085905E-19    -2.0802078727568214E-18  7.053286252219166E-20    -1.6811307976524835E-20  3.993710596582078E-21    1.6018934873329415E-22   -8.378308961820005E-24   1.1073305915684564E-24   4.5531731108610945E-20   -3.68432047674092E-26    6.331284077786782E-28
7.0E-6                    3.97498993610021E-19     5.472834252706028E-19    3.0152157772695335E-19   8.362990741623461E-21    1.63980020272925E-20     -1.1991352783892798E-21  1.2939114659790994E-22   1.2281254631983468E-23   4.2260997436206185E-20   -1.1534966858244596E-25  9.990471968662987E-28
7.499999999999999E-6      -1.2848510803185011E-17  3.352808442941236E-18    -3.838821216384554E-19   4.3753109096568284E-20   -1.326797084402541E-20   -2.1852565793148375E-21  6.740655585218446E-23    -1.4420360428223167E-23  -2.3289646896832968E-20  1.642742463139898E-25    -7.827272422607181E-27
8.0E-6                    -5.569555842294936E-17   -5.17221167490943E-18    -2.5172908701628695E-18  -1.7587752233627793E-19  -8.65252147981802E-20    4.1329340168791874E-21   -5.691963004604923E-22   -5.709808518737127E-23   2.7527081966525147E-19   6.46863457731495E-25     6.685862201260847E-27
8.5E-6                    -3.809509296831299E-17   -1.8442073041334728E-17  -2.430749297823865E-18   -8.103844052511538E-19   -1.8012367456610403E-20  1.1069962668651434E-20   -7.069130429152067E-22   1.1439001986160347E-22   1.858995880364003E-18    -3.5252415143273698E-25  5.0843687251082157E-26
9.0E-6                    6.476693594504268E-17    -2.454560967182616E-17   2.907416492179482E-18    -1.1605949339006496E-18  2.6033421955030717E-19   -2.1929757394567828E-20  1.0114265313446054E-21   2.417565108045901E-22    4.628442013328242E-18    -2.26635775222832E-24    -9.892970156130342E-26
9.499999999999999E-6      -2.1875278912355798E-16  -7.494050749746854E-17   -3.052023429575093E-18   -9.70354433527404E-19    1.5891460091540392E-19   -9.731100414880072E-20   1.8173591062839596E-21   -8.763641291704582E-22   8.68690977860941E-18     1.219002757576871E-24    -1.9547579634578937E-25
9.999999999999999E-6      -1.1570179889808522E-15  -2.4758889811944533E-16  -5.429999348667753E-17   -5.078345076222745E-18   -1.010997429942019E-18   -7.273791578601747E-20   -3.3692306532857724E-21  -1.5984206919443272E-21  2.5188487061430595E-17   1.116824901353236E-23    8.869573456345893E-25
1.05E-5                   -1.8420692209482488E-15  -4.3141545021876183E-16  -1.4077046982390086E-16  -2.4966207827818672E-17  -2.4398223325163054E-18  9.329340859874262E-20    -1.4850090038682097E-20  4.294948976953779E-21    8.036938825451695E-17    1.7182359868964744E-23   1.0611580542154778E-24
1.1E-5                    -2.7199965295579703E-15  -4.3303687212138626E-16  -1.9222506915944225E-16  -6.88112226577277E-17    -1.9531272169699454E-18  -2.3904285738833064E-19  -3.382195425750077E-20   8.3862314421544E-21      2.0036917914005522E-16   2.539804212859335E-23    -3.3625175352921844E-24
1.15E-5                   -7.778187501533466E-15   -1.0661688680884604E-15  -3.0446749045332824E-16  -1.3802157901870763E-16  -9.514015854266145E-19   -2.166369304871557E-18   -6.907853437230113E-20   -2.4829226747935656E-20  4.521859222526872E-16    7.931368403318644E-23    2.528228512749639E-24
1.2E-5                    -1.900587979415684E-14   -4.946189554666428E-15   -1.0282423068736838E-15  -2.8889844400598645E-16  -1.2179081038196456E-17  -5.845643953186081E-18   -1.387107387511915E-19   -7.482128006909432E-20   1.0906730227513805E-15   3.038608554205668E-22    3.7316510652856716E-23
1.2499999999999999E-5     -3.807609158022821E-14   -1.4063264250502798E-14  -3.155999538300134E-15   -7.681744318389002E-16   -5.554645296094955E-17   -1.0918199306347134E-17  -3.8767962037653236E-19  2.1832130953983444E-20   2.6573948464834785E-15   1.144096189877598E-21    5.166715434235326E-23
1.3E-5                    -8.856759256620308E-14   -2.7194653122668064E-14  -7.315168057267632E-15   -2.0583842002098766E-15  -1.3495056221217776E-16  -2.2813303600937143E-17  -1.3471044392486594E-18  2.598026389067654E-19    6.086401280289155E-15    3.6056285197263596E-21   5.332987453466372E-23
1.35E-5                   -2.131386379435614E-13   -4.802145385264551E-14   -1.504131392370695E-14   -4.7716253766042944E-15  -2.5583292695060144E-16  -6.485480365911089E-17   -3.942320728373458E-18   -1.0073141442939557E-19  1.3490205042321618E-14   9.411837869737966E-21    4.723502875998337E-22
1.4E-5                    -4.2796439948196526E-13  -1.014759944220144E-13   -3.196768366198004E-14   -1.0078534514060488E-14  -5.647368281845481E-16   -1.8930661329989846E-16  -9.365619345717248E-18   -1.8067167840321868E-18  2.995118488298487E-14    2.3696678390199398E-20   1.8947832144602323E-21
1.45E-5                   -7.738943856978476E-13   -2.346543794857669E-13   -7.125690457545395E-14   -2.1663204425678893E-14  -1.501415965563979E-15   -4.802235359185536E-16   -2.10307712621285E-17    -3.144361914862183E-18   6.574747160636954E-14    6.625449038247482E-20    4.511656473535543E-21
1.4999999999999999E-5     -1.5166638241778583E-12  -5.081263719874764E-13   -1.5679891143646515E-13  -4.8436854937770213E-14  -3.726583700535662E-15   -1.0845479648916807E-15  -5.167808547110274E-17   -6.977378817889136E-19   1.3994880697926984E-13   1.9613436052272965E-19   1.1310057541886415E-20
1.55E-5                   -3.149487740416973E-12   -1.0325670850610701E-12  -3.308973817007808E-13   -1.0584108441778399E-13  -8.113801940678889E-15   -2.4008678147397645E-15  -1.3499301622679556E-16  1.2798703329390829E-18   2.891324516020568E-13    5.498769670585601E-19    3.598250202160143E-20
1.6E-5                    -6.016558799074627E-12   -2.0421823445030648E-12  -6.72814509883404E-13    -2.1819033248063373E-13  -1.6828019076643248E-14  -5.5138020001182465E-15  -3.373565068341604E-16   -1.6704425068987344E-17  5.837671066858427E-13    1.4165546248577274E-18   1.0809711476416738E-19
1.6499999999999998E-5     -1.0314777958864702E-11  -3.898382258712259E-12   -1.3302312604665794E-12  -4.3196071293961415E-13  -3.581383956617833E-14   -1.2675355082273202E-14  -7.7975758886556005E-16  -7.160805271580075E-17   1.1510401115573792E-12   3.503354282581287E-18    2.8680802960723873E-19
1.7E-5                    -1.7072830461842273E-11  -7.06867890581817E-12    -2.5591393199996463E-12  -8.446078979576981E-13   -7.706255594903317E-14   -2.775073358789973E-14   -1.726008794890639E-15   -1.4512495204341335E-16  2.2019664672086446E-12   8.78003859014171E-18     7.432159996927295E-19
1.75E-5                   -2.859815591215494E-11   -1.232062482221793E-11   -4.7572444372376304E-12  -1.6324603194117064E-12  -1.5961746335598303E-13  -5.773806081969832E-14   -3.822146525245041E-15   -2.1239496904192244E-16  4.053438764808279E-12    2.231828991687806E-17    1.9696034452960085E-18
1.8E-5                    -4.6266069898457775E-11  -2.0938689349509073E-11  -8.456273302568013E-12   -3.0527541170530693E-12  -3.1334260123519194E-13  -1.1707957784959361E-13  -8.496715660596091E-15   -3.839641640565437E-16   7.107440849513399E-12    5.539580870202043E-17    5.1440935218700265E-18
1.85E-5                   -6.727072922804911E-11   -3.410232384752086E-11   -1.4212001594936065E-11  -5.417226291700466E-12   -5.921228114364711E-13   -2.338428920942959E-13   -1.8472134826992687E-14  -1.0340313537438827E-15  1.1719782960447622E-11   1.3166603665116804E-16   1.2928560025794561E-17
1.8999999999999998E-5     -8.528505485498631E-11   -5.1256463359395655E-11  -2.232192800207925E-11   -9.045774901825448E-12   -1.094034243567549E-12   -4.5393702825153984E-13  -3.864308974880538E-14   -2.692048952832005E-15   1.792618398840945E-11    3.03285295435546E-16     3.16279488925954E-17
1.95E-5                   -9.598416221325688E-11   -6.917692191879637E-11   -3.2378696036118304E-11  -1.416411668309651E-11   -1.970037185379614E-12   -8.438360884963426E-13   -7.807207027546437E-14   -5.8187088680624626E-15  2.5141616380608785E-11   6.885988530809485E-16    7.617441163706737E-17
1.9999999999999998E-5     -1.0088020267558473E-10  -8.343592026456933E-11   -4.2890580072010814E-11  -2.068077487466508E-11   -3.398758955997997E-12   -1.4992266476994006E-12  -1.5350927581433678E-13  -1.1163399200236146E-14  3.2113114206621485E-11   1.5416684240468712E-15   1.799719103732945E-16
2.05E-5                   -1.0359068992217033E-10  -9.102790553934861E-11   -5.141585160162506E-11   -2.790239008864386E-11   -5.521199953821803E-12   -2.555149555633822E-12   -2.936713284368288E-13   -2.125246615043687E-14   3.732586587482706E-11    3.3693419049625797E-15   4.1453623019469626E-16
2.1E-5                    -1.0267511357368976E-10  -9.113834906175467E-11   -5.5462063537577833E-11  -3.4471466551711643E-11  -8.352634965559799E-12   -4.16008325195158E-12    -5.437546849694901E-13   -4.229219558792621E-14   3.9624562486259045E-11   7.148852792456855E-15    9.305705728499452E-16
2.1499999999999997E-5     -9.069744934742014E-11   -8.365387224281375E-11   -5.36553063909632E-11    -3.881286002167583E-11   -1.1707922156408808E-11  -6.371679278441423E-12   -9.713189518599024E-13   -8.50009355282121E-14    3.845690076059219E-11    1.4744074218042922E-14   2.039492414890355E-15
2.2E-5                    -6.134644204290483E-11   -6.811475092918509E-11   -4.6110017756820255E-11  -3.9925282970499834E-11  -1.5190493591762275E-11  -9.006486305295217E-12   -1.671194033003569E-12   -1.6467224741918577E-13  3.3518874315692576E-11   2.959160188210645E-14    4.3613767311660394E-15
2.2499999999999998E-5     -1.5621440461914535E-11  -4.433960650644128E-11   -3.354614225736766E-11   -3.779711722755964E-11   -1.828846599083282E-11   -1.15779773118207E-11    -2.754982478474691E-12   -3.0357324558562666E-13  2.442362097825107E-11    5.764777893575176E-14    9.08126894297463E-15
2.3E-5                    4.0692761366985446E-11   -1.2689449988829712E-11  -1.618259211393222E-11   -3.283475951814349E-11   -2.056297819454027E-11   -1.3441448419990049E-11  -4.306014769128219E-12   -5.375812136758304E-13   1.107200388115184E-11    1.0862026441158742E-13   1.8382219349459434E-14
2.35E-5                   1.0463663662949922E-10   2.719894975358572E-11    6.151089357943186E-12    -2.471642952782505E-11   -2.181752627012625E-11   -1.4082017575072931E-11  -6.307877914800818E-12   -9.227342240456778E-13   -5.731225958882238E-12   1.975450455767333E-13    3.6125951205218185E-14
2.4E-5                    1.790989924810809E-10    7.706922596211416E-11    3.2882387949946115E-11   -1.201078814257953E-11   -2.208558883278095E-11   -1.3316358621831043E-11  -8.602738693502246E-12   -1.533255894034271E-12   -2.4602999681460757E-11  3.4613138383302393E-13   6.879606425981685E-14
2.45E-5                   2.6823928469681475E-10   1.3846396276838064E-10   6.239046286771472E-11    6.693878782669741E-12    -2.1355381965953942E-11  -1.1255733009636198E-11  -1.094020013248343E-11   -2.4458659095189316E-12  -4.4936884123830075E-11  5.817313417030017E-13    1.2662686232636747E-13
2.4999999999999998E-5     3.7192481642577766E-10   2.1099790675196442E-10   9.348298477424942E-11    3.127950095236555E-11    -1.917261269072803E-11   -8.125141778772097E-12   -1.3089984553534322E-11  -3.708999011004082E-12   -6.778914335663954E-11   9.309134981638213E-13    2.246968061992916E-13
2.55E-5                   4.86001117949132E-10     2.9306538431813514E-10   1.2719408475934062E-10   6.015626167100728E-11    -1.448832632817482E-11   -4.122075406888834E-12   -1.4881160151830758E-11  -5.294614341075914E-12   -9.515712520182742E-11   1.406656883555129E-12    3.8335650881822414E-13
2.6E-5                    6.069665628935529E-10    3.839156328204156E-10    1.6683595211845837E-10   9.205658607614894E-11    -6.072156736517073E-12   6.70860868870321E-13     -1.6059941902751764E-11  -7.04040033197663E-12    -1.2843620567343669E-10  1.9922641655487876E-12   6.265749886659221E-13
2.65E-5                   7.342397169461334E-10    4.840234178586575E-10    2.159910395698204E-10    1.2737848844234423E-10   6.680651219140992E-12    6.405624292476858E-12    -1.6080890789422087E-11  -8.624922160237605E-12   -1.6756654067225471E-10  2.6274927584565216E-12   9.763280557066112E-13
2.7E-5                    8.669454151143464E-10    5.929343498677139E-10    2.757077391730143E-10    1.6732523695376297E-10   2.3300322234271186E-11   1.3527616438161182E-11   -1.4139321888825713E-11  -9.639011371245101E-12   -2.111351918566353E-10   3.2027760931224888E-12   1.442367962880637E-12
2.7499999999999998E-5     9.993512961265478E-10    7.066964560525504E-10    3.424763690252844E-10    2.1194598957815547E-10   4.2780258280952664E-11   2.2573792973866522E-11   -9.596473785490672E-12   -9.756629090232189E-12   -2.567091149037267E-10   3.5698988967676065E-12   2.0098011156436773E-12
2.8E-5                    1.1206074823967712E-9    8.173972408195882E-10    4.085378091175463E-10    2.5944020972180473E-10   6.468929649733927E-11    3.3819730159232066E-11   -2.4805130940306354E-12  -8.888368985737605E-12   -3.0121785785404317E-10  3.5792644891505626E-12   2.6296471170413986E-12
2.8499999999999998E-5     1.218882381882523E-9     9.155453626495406E-10    4.6516787853653673E-10   3.0707304414850315E-10   8.959798912884641E-11    4.7188513201354245E-11   6.507834340709667E-12    -7.165765627558312E-12   -3.4171469282774113E-10  3.1404043404063022E-12   3.217349014002471E-12
2.9E-5                    1.2846673897763E-9       9.933836908850008E-10    5.069597464646787E-10    3.5200366297872577E-10   1.1820687941647744E-10   6.250782266517174E-11    1.665238250730915E-11    -4.750091965481187E-12   -3.761060989352081E-10   2.271111766621652E-12    3.661430036505661E-12
2.95E-5                   1.3095901026734929E-9    1.045641750086484E-9     5.335041833446161E-10    3.9112531855308855E-10   1.5017361561940572E-10   7.962981946913487E-11    2.7967985225156877E-11   -1.6472437612650804E-12  -4.028610224917422E-10   1.0850589232193839E-12   3.841994556629815E-12
2.9999999999999997E-5     1.2830718002011533E-9    1.066453383234428E-9     5.471596320560475E-10    4.208106630878625E-10    1.84062840921557E-10     9.810712866966672E-11    4.124980423458775E-11    2.301348761721218E-12    -4.197305034218378E-10   -2.9341741724083215E-13  3.657213191969459E-12
3.05E-5                   1.191471983622158E-9     1.0459896370396772E-9    5.491460446321823E-10    4.3735124241836916E-10   2.1831606410145303E-10   1.1691753534934916E-10   5.73033765364347E-11     7.295684014499272E-12    -4.229149726462316E-10   -1.827726486078302E-12   3.051972589380229E-12
3.1E-5                    1.0206635765519602E-9    9.713147747196833E-10    5.366145627286502E-10    4.3762800672756777E-10   2.5172604117982416E-10   1.348232330419133E-10    7.608007459327255E-11    1.3497448667370563E-11   -4.078383742696194E-10   -3.5977487707881116E-12  2.0348185992793855E-12
3.15E-5                   7.594021514798376E-10    8.305799177294401E-10    5.017736592119975E-10    4.1936291813247306E-10   2.826535693089331E-10    1.5098046068493616E-10   9.653210353336289E-11    2.1043570230697653E-11   -3.7088622940594696E-10  -5.737474974836845E-12   6.645881204242313E-13
3.2E-5                    4.014947471802265E-10    6.154025941931379E-10    4.337778255184717E-10    3.808800364747776E-10    3.0804308763580223E-10   1.6484895338339264E-10   1.1727401454069827E-10   3.0029890455828164E-11   -3.10273986452438E-10    -8.33896352953623E-12    -9.99349637328125E-13
3.25E-5                   -5.375739256688758E-11   3.197677400968419E-10    3.2332989068171504E-10   3.2036921951106175E-10   3.235946775074409E-10    1.7533227513895823E-10   1.3739661925202542E-10   4.040125807826946E-11    -2.2506785805839137E-10  -1.139112801007563E-11   -2.957044845774276E-12
3.2999999999999996E-5     -6.03442650544804E-10    -6.065876412935742E-11   1.6690891609444096E-10   2.348113003106673E-10    3.250388940212325E-10    1.8022494335802739E-10   1.5669914781055903E-10   5.188121075988748E-11    -1.1348103923809165E-10  -1.477826563171802E-11   -5.28682826172855E-12
3.35E-5                   -1.2442639894125181E-9   -5.263402672654741E-10   -3.3479786015687186E-11  1.1963484307145867E-10   3.0939105062866856E-10   1.7677283606957947E-10   1.7512855579683634E-10   6.407902966651762E-11    2.7375708154474662E-11   -1.8335877748698258E-11  -8.094705599412587E-12
3.4E-5                    -1.973102848151752E-9    -1.0718865484727078E-9   -2.744229330586227E-10   -2.974650853307464E-11   2.7531880562359475E-10   1.6282719683292208E-10   1.918434061150884E-10    7.668462470127795E-11    1.9959398542760897E-10   -2.1950707032847724E-11  -1.1435836968085456E-11
3.45E-5                   -2.782720019094975E-9    -1.6874161506165421E-9   -5.536730615719785E-10   -2.1521990493113168E-10  2.225259977620107E-10    1.3743230431647956E-10   2.0461436613424116E-10   8.951776729936455E-11    4.0233808033247874E-10   -2.5642987574702604E-11  -1.529376881568002E-11
3.5E-5                    -3.6567344230426403E-9   -2.3611058513063906E-9   -8.682443491179479E-10   -4.3445763255740687E-10  1.5068617354107557E-10   1.0037310754036634E-10   2.1005502719811702E-10   1.0232688897203052E-10   6.318209734524863E-10    -2.951800819501509E-11   -1.9646954744058015E-11
3.5499999999999996E-5     -4.569190908960458E-9    -3.0789723914436637E-9   -1.2114576031748999E-9   -6.819941452822451E-10   5.880527170695346E-11    5.1256697033442136E-11   2.0459128171919658E-10   1.1446140073066636E-10   8.830143569772836E-10    -3.354839326255891E-11   -2.4534749689406065E-11
3.6E-5                    -5.48737070820573E-9     -3.821958698623248E-9    -1.5731981870234262E-9   -9.516441848678897E-10   -5.452508134956278E-11   -1.0941125331640589E-11  1.855507391864915E-10    1.2464908684305029E-10   1.15040148180833E-9      -3.734870847871114E-11   -3.000040963238473E-11
3.65E-5                   -6.372658663573192E-9    -4.563652798141183E-9    -1.9423152736915902E-9   -1.2377313149422932E-9   -1.9052507693360687E-10  -8.744490886617689E-11   1.5167788211720717E-10   1.310760784990353E-10    1.4265544108377553E-9    -4.0204706145178763E-11  -3.5912850372525564E-11
3.7E-5                    -7.179267194097998E-9    -5.270682017837029E-9    -2.307169035359477E-9    -1.5338892951680856E-9   -3.499439273373229E-10   -1.7880110656149252E-10  1.0278951282189608E-10   1.318206547296377E-10    1.7006131885936248E-9    -4.142535584854859E-11   -4.183231407087189E-11
3.75E-5                   -7.855293561483682E-9    -5.905067920150837E-9    -2.6538075484129953E-9   -1.8305924707424244E-9   -5.326739877127817E-10   -2.843602919169002E-10   3.888043982807496E-11    1.254322800558627E-10    1.9590506143188413E-9    -4.07422243081509E-11    -4.7087048854406116E-11
3.7999999999999995E-5     -8.346943151396715E-9    -6.426547963022802E-9    -2.965006309776873E-9    -2.113786113255704E-9    -7.365140048676208E-10   -4.023868682088472E-10   -4.0625253391524823E-11  1.1124299755615536E-10   2.1879471170317195E-9    -3.837179402548073E-11   -5.103159128221444E-11
3.85E-5                   -8.601565204514587E-9    -6.7931095466180615E-9   -3.221691822220199E-9    -2.365878658350939E-9    -9.557714653362842E-10   -5.302761982394659E-10   -1.3689911789131026E-10  8.914246448858106E-11    2.37399029551547E-9      -3.464899234959318E-11   -5.326000517568237E-11
3.9E-5                    -8.567339227359307E-9    -6.9598575900510124E-9   -3.4044716605678184E-9   -2.5680596610948902E-9   -1.1813485723756428E-9   -6.643853087840334E-10   -2.509995995151022E-10   5.900694556428118E-11    2.5033244506577374E-9    -2.954642286074321E-11   -5.3576190596578874E-11
3.95E-5                   -8.192954441650008E-9    -6.879117233972648E-9    -3.493286685198195E-9    -2.701975976763782E-9    -1.4024996757804335E-9   -7.997191856424526E-10   -3.8294827743394563E-10  2.027295582795496E-11    2.560286185321504E-9     -2.2483298132655362E-11  -5.1771648959117065E-11
3.9999999999999996E-5     -7.43054356310611E-9     -6.50470713187321E-9     -3.4666203135495355E-9   -2.750120591713087E-9    -1.6084758465050886E-9   -9.300230697798772E-10   -5.311081004691621E-10   -2.804072636420494E-11   2.528065691401083E-9     -1.2528524183953734E-11  -4.7466139183858294E-11
4.0499999999999995E-5     -6.240581877356453E-9    -5.798873433286169E-9    -3.3025782849247883E-9   -2.69579865000243E-9     -1.7886360184051577E-9   -1.0483201366100287E-9   -6.919559864466199E-10   -8.696050286138278E-11   2.390950086967214E-9     1.2297312572991447E-12   -4.018591322178427E-11
4.1E-5                    -4.595921546791032E-9    -4.736513478930762E-9    -2.98159557181493E-9     -2.5233828865495822E-9   -1.9316369368220914E-9   -1.1474276064225282E-9   -8.600566251213754E-10   -1.5707963709573487E-10  2.136359600715359E-9     1.9399926974703804E-11   -2.9564869385316134E-11
4.15E-5                   -2.4845899839317945E-9   -3.303990099665413E-9    -2.4888564506940175E-9   -2.2188161017803007E-9   -2.025121013429742E-9    -1.2200789343855753E-9   -1.028161388074275E-9    -2.3810067709473966E-10  1.7556347318904057E-9    4.212991105374469E-11    -1.540018274816258E-11
4.2E-5                    8.772044878781181E-11    -1.4964118299224066E-9   -1.8155700393021422E-9   -1.7705096534652006E-9   -2.0562456350913004E-9   -1.2586560016368133E-9   -1.1875577463417552E-9   -3.2849257726147996E-10  1.2439346397902943E-9    6.900926654654743E-11    2.523818525509835E-12
4.2499999999999996E-5     3.095704950528126E-9     6.809824419246379E-10    -9.595399320651702E-10   -1.1710247109607133E-9   -2.012407491905645E-9    -1.2548498957645164E-9   -1.328700976448176E-9    -4.254808859677782E-10   6.002080466542932E-10    9.907776233743799E-11    2.46280234517434E-11
4.2999999999999995E-5     6.4933339325260755E-9    3.207283385617007E-9     7.447650643080724E-11    -4.1901455189289115E-10  -1.8817508748796828E-9   -1.199806777431773E-9    -1.4418495875320576E-9   -5.255265013222315E-10   -1.7209267908773028E-10  1.310732483752013E-10    5.1483361888096514E-11
4.35E-5                   1.0212405283104643E-8    6.041473305361018E-9     1.2742248455879773E-9    4.797383795182009E-10    -1.6535711665191077E-9   -1.0851658056878306E-9   -1.5173171211246295E-9   -6.250315851958197E-10   -1.0636898033275778E-9   1.638725720999969E-10    8.350191515946428E-11
4.4E-5                    1.4160338991007938E-8    9.122325439055961E-9     2.618911497378937E-9     1.5122137226654922E-9    -1.3187415244721407E-9   -9.045673578711056E-10   -1.5452720676911066E-9   -7.206495431118457E-10   -2.0584474592587336E-9   1.96790540365679E-10     1.206139259021924E-10
4.45E-5                   1.821974432273995E-8     1.2370042687426282E-8    4.0782472594758324E-9    2.65779919957793E-9      -8.703074570325697E-10   -6.544719162770055E-10   -1.515477888926236E-9    -8.088033147692282E-10   -3.1333850875062357E-9   2.2940496775407019E-10   1.6214143530805775E-10
4.4999999999999996E-5     2.2252234331024312E-8    1.568600350436805E-8     5.612857422434009E-9     3.887498352164196E-9     -3.046113453624782E-10   -3.3366777293507875E-10  -1.4174661165343274E-9   -8.847531409025633E-10   -4.259420244221708E-9    2.609869932302118E-10    2.06868377683715E-10
4.5499999999999995E-5     2.6104605519723936E-8    1.8951728843025835E-8    7.176206249129997E-9     5.164070298396648E-9     3.770380768612832E-10    5.768778310525603E-11    -1.2412881778901817E-9   -9.420770824712593E-10   -5.4018939157777524E-9   2.900437152267347E-10    2.5317888913836376E-10
4.6E-5                    2.9613101418297028E-8    2.2031149766336527E-8    8.716488872854178E-9     6.44370651373095E-9      1.16698220251875E-9      5.180624942285944E-10    -9.786206991411221E-10   -9.731474051813788E-10   -6.520690848122086E-9    3.1442787563000946E-10   2.99182458320617E-10
4.65E-5                   3.260511311706283E-8     2.4777078354357318E-8    1.0177298334523688E-8    7.677841326703266E-9     2.0509212621570302E-9    1.0432381445423356E-9    -6.23924805622513E-10    -9.703412094828793E-10   -7.570813416408384E-9    3.3192616155018994E-10   3.42829758152456E-10
4.7E-5                    3.490213961828788E-8     2.7038423565534335E-8    1.1497851006997275E-8    8.813846182568238E-9     3.0083448855024553E-9    1.6247565826013095E-9    -1.7541768196237907E-10  -9.2714944097432E-10     -8.504039443022635E-9    3.4075392743282157E-10   3.8201128148446393E-10
4.7499999999999996E-5     3.6326748125100464E-8    2.8665255088619767E-8    1.2614279730195996E-8    9.795443095716427E-9     4.012694595983459E-9     2.2492954306758068E-9    3.6439501948187945E-10   -8.385735864321472E-10   -9.271154438584982E-9    3.394863844036737E-10    4.1456948476908987E-10
4.8E-5                    3.671187351473048E-8     2.9512713156038076E-8    1.3462201754165565E-8    1.0564269435560833E-8    5.031176246598938E-9     2.899128744603992E-9     9.887688020570666E-10    -7.009052177490051E-10   -9.823853066279763E-9    3.2654936808270733E-10   4.3818760723167047E-10
4.85E-5                   3.590954291644097E-8     2.944631389323111E-8     1.3979606417931003E-8    1.1062446049121846E-8    6.025109327263527E-9     3.5529820694078783E-9    1.687107759317209E-9     -5.114307467910049E-10   -1.011623495505554E-8    2.9985285432814313E-10   4.5025482489161484E-10