% Model:              Untitled.mph
% Version:            COMSOL 6.0.0.405
% Date:               Jul 15 2025, 14:31
% Dimension:          1
% Nodes:              401
% Expressions:        11
% Description:        Point graph
% Time (s)                Displacement field, Y component Displacement field, Y component Displacement field, Y component Displacement field, Y component Displacement field, Y component Displacement field, Y component Displacement field, Y component Displacement field, Y component Displacement field, Y component Displacement field, Y component Displacement field, Y component
0                         -3.1405385799532646E-33  -1.1811842372274507E-32  -5.373047916878262E-32   -1.1528965526561834E-32  -3.0159748925052033E-33  -2.2335499177472997E-33  1.232097684570308E-31    3.1678628805337086E-32   3.5670282546537704E-32   9.715188436359269E-33    5.63659962078745E-33
5.0E-7                    3.0836263326728947E-23   1.0919534098050697E-23   -4.086348010808382E-23   -1.7252784851642426E-22  -7.064422232071706E-26   -8.270170533569646E-25   -4.88484063401546E-23    -1.5253041937716252E-23  -1.1389645997541422E-23  -2.2834090587375633E-24  -1.8496433861152928E-24
1.0E-6                    -7.750558321095288E-23   -2.747228601254035E-23   -9.756396807628643E-22   -1.0617989170049277E-21  -1.9984271205593272E-24  1.383322390257423E-23    1.0670743001213541E-22   5.685151872317944E-23    4.406311403784808E-23    7.152582192411125E-24    1.3313973631587587E-23
1.5E-6                    -6.424274294174481E-22   -2.5390362707516094E-22  2.6606910939789406E-21   5.690888148433268E-21    -3.638442517832368E-23   1.0708406100020208E-22   8.764373785050044E-22    2.5195969594625617E-22   -9.183681978369448E-24   7.076335753425184E-24    -4.2181405807630076E-23
2.0E-6                    1.5151943174746091E-21   1.1578475810617371E-21   1.2047990999527607E-20   2.667157917938253E-20    3.309133766446567E-22    -4.062675896854905E-22   -1.038270022111071E-21   -4.364248193579997E-22   -3.295140721573429E-22   -6.462824809518132E-23   -6.255324049307494E-23
2.4999999999999998E-6     5.440891600105702E-21    -1.717971126473521E-23   -1.9454788797919637E-20  -1.5423201947722673E-20  2.5641922431909573E-22   -1.94306924404301E-21    -5.598950409191658E-21   -4.0070247978193415E-21  8.910192661631397E-22    -5.085166251054752E-23   6.229105483060949E-22
3.0E-6                    -7.736865547671785E-21   -3.9983194917455666E-21  -2.7579430955936906E-20  -1.5836924129212466E-19  -5.149239473436162E-21   6.721428795721185E-21    -5.741847174258904E-22   1.1136941623048E-22      9.293484593024896E-22    1.6779432200783225E-22   -2.241327489175411E-22
3.5E-6                    -3.799795411881695E-20   -1.0293715249453614E-21  9.128865784518343E-20    -1.478583772471673E-19   2.1385253930341298E-23   2.833813959578477E-20    -1.709740967052019E-20   4.2196760288938956E-20   -1.009210029591172E-20   2.5813898540148566E-22   -4.803455643146276E-21
4.0E-6                    3.795995947907501E-21    5.034257764304479E-21    3.5395501162045716E-20   3.197528998832663E-19    4.39125022175908E-20     -5.795315765459851E-20   1.6808816123409234E-19   3.570426136371744E-20    5.680327423828186E-21    5.061159705744558E-21    4.481029611107692E-21
4.5E-6                    1.9432429067284877E-19   1.905124961468867E-20    -3.6256949537422983E-19  1.0524654330271968E-18   -1.4968576123036045E-20  -2.8771596040659104E-19  6.113559080972835E-19    -2.9770845678297233E-19  6.487819497423353E-20    -1.361174023163198E-22   2.7702717498997226E-20
4.9999999999999996E-6     2.0525288215290477E-19   2.1530710896918378E-20   -4.029366854568625E-19   7.449335564652374E-19    -2.3993617450060456E-19  2.7396068483209806E-19   -1.3982335616631976E-18  -3.245498863733061E-19   -1.0918441220847843E-20  -7.099340600988387E-20   -2.9780218741826473E-20
5.5E-6                    -6.318081544725889E-19   -9.927203525634942E-20   7.141333888726109E-19    -2.234208141766238E-18   2.0029197444106937E-19   2.0749566364124433E-18   -5.1853591610869085E-18  1.5063090183251865E-18   -1.0719643214088996E-19  -7.966657286235506E-21   -1.212946567557759E-19
6.0E-6                    -1.5795388864777213E-18  -2.8484718922906215E-19  2.1831856130982683E-18   -4.857657834842188E-18   1.4929064369718364E-18   -8.537190772125251E-20   5.01451061901552E-18     1.5570542636407046E-18   -2.804883857568901E-20   5.310391511523475E-19    1.0977754160930482E-19
6.5E-6                    7.242245638647028E-19    1.6280929594445033E-19   4.97569223373427E-19     2.071513228161572E-18    2.6574911542209766E-19   -9.973509544845498E-18   2.828800568213409E-17    -5.095340783701074E-18   -1.3095891984226486E-19  2.6832040063082085E-19   4.513861761113639E-19
7.0E-6                    6.4153295610631045E-18   1.6462398564345037E-18   -4.674435224942174E-18   1.5967388905467776E-17   -5.245563672457519E-18   -6.035961026865068E-18   3.3698135937819603E-18   -3.443173887945247E-19   2.78474145683121E-18     -2.5075104377430005E-18  -7.676659826870728E-20
7.499999999999999E-6      4.086890599227396E-18    1.1608387006369805E-18   -2.3351541617208526E-18  3.598656877292187E-18    -4.801968382983925E-18   3.5313416550688455E-17   -8.563605896304046E-17   2.529414831345757E-17    1.0791890610682639E-17   -1.956128720328501E-18   -1.1578309822696018E-18
8.0E-6                    -1.5438406417576984E-17  -6.655475630109384E-18   8.494440759127308E-18    -4.866426514099855E-17   1.721013735333346E-17    5.151954988727837E-17    -4.67092479581512E-17    -8.321752233600468E-18   6.469562754539194E-18    1.0286713439057421E-17   -6.73465375902775E-19
8.5E-6                    -2.70003723333314E-17    -1.5489133424056114E-17  -7.183996038817314E-18   -2.29851210167494E-17    5.2715524199142025E-17   -5.578470629918875E-17   2.587442409175231E-16    -1.0289293516615024E-16  -7.358387449040182E-18   1.4728306307163324E-17   3.1215501043567545E-18
9.0E-6                    1.1382241227174098E-17   4.548571376901957E-18    -4.0404213823787116E-17  2.453313513306015E-16    4.963854826625838E-17    -1.5587145447445331E-16  3.6748610679725425E-16   1.2983128277010045E-16   6.486566218993441E-17    -2.0587633890511417E-17  8.434904880013747E-18
9.499999999999999E-6      7.504632028986612E-17    6.260708940801623E-17    4.7715926507220155E-17   4.853202787581744E-16    -3.864758072772285E-17   7.159482424777867E-17    -1.838463443446685E-16   8.556312453841693E-16    2.8893297922627354E-16   -3.541072738223452E-17   4.8369828733213065E-18
9.999999999999999E-6      5.807700150948636E-17    4.982403553195837E-17    2.7200026789964535E-16   -1.378777969849898E-16   -7.44833037565715E-17    5.375330293673745E-16    -2.6223922129988367E-17  8.009843393117136E-16    5.976019410728282E-16    9.708726379641771E-17    -8.872037031431536E-18
1.05E-5                   -9.531608130379715E-17   -1.8357141516056974E-16  1.8367868305984083E-16   -1.4633699596599147E-15  4.174203585253547E-16    7.059659431265975E-16    2.999036451003943E-15    -8.680134078330847E-16   1.3037226308754316E-15   2.7700604893824E-16      2.2426266969571966E-17
1.1E-5                    -2.726932957837568E-16   -4.142229101401981E-16   -6.07511783072457E-16    -4.720699544879519E-16   1.8232830884728203E-15   7.822306612184621E-16    6.881231500278365E-15    6.449848125723922E-16    3.349300498030141E-15    2.373737013210028E-16    1.6207584172093428E-16
1.15E-5                   -2.1049434176866698E-16  1.67280295329405E-17     -1.2971394696341895E-15  5.678518669888304E-15    3.4002421355168698E-15   1.9911900814875813E-15   7.719519230110542E-15    1.3431306858338295E-14   7.343522646287638E-15    3.8686568093361087E-16   3.305229518960283E-16
1.2E-5                    3.4014895164387865E-16   9.899909912381672E-16    -6.188801552945396E-17   1.1627109028248531E-14   3.907715968377037E-15    4.839309561281672E-15    1.3929195036138051E-14   3.486979468313293E-14    1.5700880183720414E-14   1.9650610979796355E-15   4.8086520324845815E-16
1.2499999999999999E-5     1.0654171069939789E-15   5.571479664191672E-16    3.6750690448858125E-15   4.479148339644422E-15    6.579213381073384E-15    1.0157657273760544E-14   4.742171564212307E-14    5.421860674928444E-14    4.059348290639514E-14    5.614945747376701E-15    1.1431302106224222E-15
1.3E-5                    5.193537839029308E-16    -2.7362948471933217E-15  6.7170767066236995E-15   -1.5808529034196004E-14  2.3389284248242E-14      2.558591345420064E-14    1.2146381431558438E-13   9.423815906844837E-14    1.0240673566355856E-13   1.2028867101060072E-14   3.2577614377775777E-15
1.35E-5                   -2.5294414956451494E-15  -5.730130622696113E-15   2.9088639726584322E-15   -1.7868920798581182E-14  6.613586537582052E-14    6.721825842972529E-14    2.486501928911873E-13    2.391609470062826E-13    2.094520418749882E-13    2.697759800230316E-14    7.495333212836754E-15
1.4E-5                    -5.609399345438256E-15   -2.855455662151224E-15   -8.032766803858761E-15   3.835058428049101E-14    1.309513589104522E-13    1.4983358103026601E-13   5.009467813875171E-13    5.917530037383499E-13    3.726549563733869E-13    6.401935876075408E-14    1.597795822493939E-14
1.45E-5                   -2.80721049038069E-15    2.919876592924769E-15    -7.49698303324479E-15    1.4423377213088905E-13   2.206849197442321E-13    2.90064618333485E-13     1.0259561307697978E-12   1.2448006469388112E-12   7.099721457577741E-13    1.4438926013609427E-13   3.528954927503537E-14
1.4999999999999999E-5     5.982399578772921E-15    -5.723008904723167E-15   3.395899724797758E-14    2.215947675939216E-13    4.235840833234367E-13    5.511684695583902E-13    2.000073948275277E-12    2.3758727362187926E-12   1.5032080525467636E-12   3.1433555292413987E-13   7.341165434068129E-14
1.55E-5                   6.525998813685078E-15    -4.4688554885503307E-14  1.1067917391135855E-13   1.9733777625480378E-13   9.46736585622204E-13     1.100547000130046E-12    3.71322485844681E-12     4.35527342260674E-12     2.972662143693967E-12    6.810624463522829E-13    1.376494215656711E-13
1.6E-5                    -1.8983157095695985E-14  -1.0148405757114225E-13  1.5590872703602698E-13   1.4142636296052357E-13   1.992850246472553E-12    2.2202651036076095E-12   6.8071818556416314E-12   7.744677429182195E-12    5.00054207995415E-12     1.4181477241397752E-12   2.6086862571024304E-13
1.6499999999999998E-5     -6.630505461298322E-14   -1.407719665599999E-13   1.3253392393351588E-13   3.398320304060342E-13    3.6613942671903775E-12   4.2868123182840646E-12   1.2235315006099986E-11   1.3294076088865014E-11   7.535317265267703E-12    2.7434806224733214E-12   5.40698748723066E-13
1.7E-5                    -1.0579674473767514E-13  -1.7125168487278132E-13  1.9014293156553655E-13   1.1482595551553682E-12   6.247284065645129E-12    7.785305098989725E-12    2.0648311270544378E-11   2.1729294529061513E-11   1.1576090767964215E-11   5.006715086796844E-12    1.1015551086752875E-12
1.75E-5                   -1.239848637655934E-13   -3.1543935135069E-13     6.39524017858955E-13     2.6470679938616268E-12   1.0722759835291604E-11   1.3293258855301868E-11   3.1605177836959925E-11   3.273241367081905E-11    1.8998857247090412E-11   8.889621455199482E-12    1.983633239386221E-12
1.8E-5                    -1.7133742215400236E-13  -7.644225413053057E-13   1.6383156237549E-12      4.503667331501963E-12    1.8350176816447425E-11   2.1263244281089014E-11   4.321498395665488E-11    4.381641900706518E-11    3.021277215885211E-11    1.5262614429521683E-11   3.2181915992854607E-12
1.85E-5                   -3.541725346549178E-13   -1.6230134814056184E-12  2.9609976753128434E-12   6.505462890546082E-12    2.9028806697984683E-11   3.163772978537074E-11    5.2499526139180154E-11   5.135876992705342E-11    4.225193464097291E-11    2.4272337418297803E-11   5.248817549129191E-12
1.8999999999999998E-5     -7.767236861161337E-13   -2.864029115701307E-12   4.3469196060647E-12      9.369804356090755E-12    4.009452831732392E-11    4.35827670022395E-11     5.661074358977315E-11    5.374223728787365E-11    5.083628241316665E-11    3.4348148668623247E-11   9.160158978589577E-12
1.95E-5                   -1.5140196969145247E-12  -4.538196966125093E-12   6.214439757103387E-12    1.4508389037868158E-11   4.767956471984973E-11    5.546982027427506E-11    5.446867257941269E-11    5.2354605039616634E-11   5.458278565371268E-11    4.2673396498291E-11      1.5889793001215096E-11
1.9999999999999998E-5     -2.6527130603726385E-12  -6.97369874071129E-12    9.749019114820368E-12    2.2275589324720114E-11   4.96590913688264E-11     6.496420693609226E-11    4.72761248764988E-11     4.8159400355158004E-11   5.519249979578881E-11    4.729425782420109E-11    2.4816824286241205E-11
2.05E-5                   -4.318942868934687E-12   -1.055313261726349E-11   1.5752146926509574E-11   3.0560808116296854E-11   4.662409557981158E-11    6.929862893106291E-11    3.6918977793850944E-11   3.8767214258013304E-11   5.270464426343275E-11    4.8525568292778536E-11   3.3570532156938474E-11
2.1E-5                    -6.613292821815581E-12   -1.5170964071313314E-11  2.3093162863214123E-11   3.6032774355175486E-11   3.9752828906773426E-11   6.605644833857518E-11    2.3869606037415243E-11   2.124379023057668E-11    4.3198304614455505E-11   4.755428970846074E-11    3.9922515064914557E-11
2.1499999999999997E-5     -9.52447742519945E-12    -1.9975538183073728E-11  2.8489858571718885E-11   3.7207083550512437E-11   2.8895911916388865E-11   5.41825824117741E-11     6.947982018045659E-12    -3.0878129925068625E-12  2.350456656056668E-11    4.383213001360886E-11    4.3730528549052184E-11
2.2E-5                    -1.2939163301234334E-11  -2.3670433779673305E-11  2.8380166636583283E-11   3.5570390061775986E-11   1.3666360562005666E-11   3.4227134724835805E-11   -1.5395044153629488E-11  -2.941961615519611E-11   -3.6338232267211954E-12  3.491089087391613E-11    4.6337456920688615E-11
2.2499999999999998E-5     -1.6671542083397982E-11  -2.4970785060035308E-11  2.158539203235052E-11    3.2933002070679615E-11   -4.684947249346084E-12   7.527513566015378E-12    -4.423109059067334E-11   -5.5259009748803383E-11  -3.21263317129312E-11    1.9143133827223962E-11   4.813168651987483E-11
2.3E-5                    -2.0336421533815857E-11  -2.284938779261996E-11   1.0380656066972174E-11   2.814137682633637E-11    -2.435902193857326E-11   -2.4624486984752473E-11  -7.996916866029131E-11   -8.377848461537053E-11   -5.975272181263475E-11   -2.4625125678692266E-12  4.7509821405995676E-11
2.35E-5                   -2.317912518831737E-11   -1.677181983654819E-11   -1.2564651149341246E-12  1.7514098244869966E-11   -4.614873950556186E-11   -6.111436550418411E-11   -1.221200416580035E-10   -1.212774627029682E-10   -9.046949441957771E-11   -2.7669047771503265E-11  4.231754345517158E-11
2.4E-5                    -2.4230504200043333E-11  -7.085517162473458E-12   -1.0901815152743254E-11  -1.2796336653921859E-12  -7.403952585977966E-11   -1.0127573806158293E-10  -1.6979410835794337E-10  -1.7202115605719717E-10  -1.297572425032171E-10   -5.5509327387340806E-11  3.140853248710752E-11
2.45E-5                   -2.27834171518421E-11    4.912767073117353E-12    -1.9524309997484037E-11  -2.673519896456325E-11   -1.117932337163338E-10   -1.459215256364202E-10   -2.2328461975622055E-10  -2.3464226682650106E-10  -1.7957076982355542E-10  -8.685072339790853E-11   1.449409016414934E-11
2.4999999999999998E-5     -1.8607234133869395E-11  1.7731112633343404E-11   -3.011102158492636E-11   -5.560985767869299E-11   -1.594265867030987E-10   -1.9770628248271352E-10  -2.8431330532810394E-10  -3.0246425482640295E-10  -2.3757010289301205E-10  -1.235703038325685E-10   -8.66529491764425E-12
2.55E-5                   -1.1548417461846964E-11  3.080678528354689E-11    -4.44190663443748E-11    -8.69833623694767E-11    -2.134746330836913E-10   -2.592707846395317E-10   -3.5322209295787095E-10  -3.679228252215759E-10   -2.99312506673671E-10    -1.682153268280477E-10   -3.847403202443692E-11
2.6E-5                    -1.05789419835178E-12    4.4869962892642885E-11   -6.124983985495103E-11   -1.2314269999277668E-10  -2.699171156316985E-10   -3.304906474597436E-10   -4.2601078763652875E-10  -4.27362139430976E-10    -3.6080543598132396E-10  -2.2337880076379776E-10  -7.573144763443822E-11
2.65E-5                   1.3626566864220955E-11   6.107107130894973E-11    -7.805847170246663E-11   -1.6601163893484818E-10  -3.258676737889387E-10   -4.0775732532698416E-10  -4.952357307692081E-10   -4.813047815669394E-10   -4.2012157733751313E-10  -2.8929395176122325E-10  -1.2213843490327584E-10
2.7E-5                    3.2809341550293414E-11   7.973182013537252E-11    -9.384598486632761E-11   -2.1315112640652856E-10  -3.7885776736520963E-10  -4.857924287656628E-10   -5.539032598623843E-10   -5.306454700880375E-10   -4.770509960166069E-10   -3.6165799710639525E-10  -1.7951821037886592E-10
2.7499999999999998E-5     5.5952060483032686E-11   1.0001686817495172E-10   -1.0968139407363175E-10  -2.578321739929908E-10   -4.259808975854979E-10   -5.595410796764801E-10   -5.977177771163368E-10   -5.735911742139489E-10   -5.308427311881064E-10   -4.331888394289623E-10   -2.472768400759917E-10
2.8E-5                    8.181702260122119E-11    1.2076931939435948E-10   -1.2620553097954277E-10  -2.933103777986303E-10   -4.643277052598094E-10   -6.243163745619334E-10   -6.237336793406606E-10   -6.052141596194354E-10   -5.779358000002619E-10   -4.979568996798891E-10   -3.2085836641639436E-10
2.8499999999999998E-5     1.087699171071359E-10    1.41381211886912E-10     -1.415159609088113E-10   -3.1738444739528215E-10  -4.913992731108417E-10   -6.749587290667069E-10   -6.284107525706149E-10   -6.179904936114422E-10   -6.112417655700727E-10   -5.533988609258205E-10   -3.9387792166725457E-10
2.9E-5                    1.351604356977066E-10    1.6154456816560016E-10   -1.5251689457260858E-10  -3.3324114485303737E-10  -5.045323695624928E-10   -7.054332209310867E-10   -6.082197774497442E-10   -6.032453140226668E-10   -6.211584318546862E-10   -5.979137247464689E-10   -4.6238230660109807E-10
2.95E-5                   1.6001515609662377E-10   1.8014918899549286E-10   -1.582915898466369E-10   -3.4569015895635306E-10  -5.005895276351983E-10   -7.090884207718901E-10   -5.612503171964985E-10   -5.539808311229341E-10   -5.984884589134346E-10   -6.277970652110427E-10   -5.268133063424108E-10
2.9999999999999997E-5     1.8365620200403275E-10   1.9470618748535393E-10   -1.6122357541636898E-10  -3.555456225861333E-10   -4.764724671295438E-10   -6.793166365747836E-10   -4.858624703008754E-10   -4.664061746136144E-10   -5.383596641155631E-10   -6.371907346021313E-10   -5.893862318984429E-10
3.05E-5                   2.072581050502902E-10    2.0208793518259412E-10   -1.641487697618693E-10   -3.5678304239013417E-10  -4.2866077811021625E-10  -6.106975560397903E-10   -3.7674158958438215E-10  -3.379480179567826E-10   -4.412650097540536E-10   -6.196373695843907E-10   -6.490022174113442E-10
3.1E-5                    2.3111485220768086E-10   1.9990688950458787E-10   -1.6637455726014373E-10  -3.393148878165357E-10   -3.5138965757493087E-10  -5.00219571071162E-10    -2.2390526168311737E-10  -1.6474285106213503E-10  -3.0848748507533025E-10  -5.68346127629647E-10    -6.980097789490299E-10
3.15E-5                   2.5284221858417646E-10   1.873098658969836E-10    -1.6246266436438967E-10  -2.952172020523135E-10   -2.3675981789905993E-10  -3.4728045228099666E-10  -1.7552936537205006E-11  5.7409443169448795E-11   -1.3622273222847178E-10  -4.760370656087911E-10   -7.237227171994522E-10
3.2E-5                    2.671368692184978E-10    1.6465382874398155E-10   -1.4471567845325767E-10  -2.226100861979521E-10   -7.869313854414443E-11   -1.5178178343129913E-10  2.46130372539295E-10     3.298982585481222E-10    8.39426694913192E-11     -3.368090468410276E-10   -7.138411703980142E-10
3.25E-5                   2.6764718792397275E-10   1.3232279763350188E-10   -1.0725669499539786E-10  -1.2382050185103745E-10  1.2327343711226396E-10   8.838541346011932E-11    5.643769881460809E-10    6.500565419757728E-10    3.5765374770062443E-10   -1.4877003160554133E-10  -6.613675691658681E-10
3.2999999999999996E-5     2.4994195865219006E-10   8.933609847903616E-11    -4.9078772931268376E-11  -7.163419623233359E-13   3.6519270900223705E-10   3.780747976216816E-10    9.312953598518997E-10    1.012692520820565E-9     6.819029238689274E-10    8.638159795031034E-11    -5.646142027092991E-10
3.35E-5                   2.1344356366493155E-10   3.278041375400407E-11    2.54554697723532E-11     1.474400359252794E-10    6.428515832436747E-10    7.225748472499317E-10    1.3396270115443547E-9    1.4118228274103862E-9    1.0474681124395508E-9    3.6719880737301976E-10   -4.2255680562154917E-10
3.4E-5                    1.6041299390522415E-10   -4.095843783006924E-11   1.0901221609613866E-10   3.223738626095676E-10    9.525957658042887E-10    1.1233732611919446E-9    1.77930422845406E-9      1.84042686824516E-9      1.4461812401906203E-9    6.952726210510842E-10    -2.307500665216017E-10
3.45E-5                   9.232247137811854E-11    -1.3365988347488775E-10  1.955388386577862E-10    5.24587862758614E-10     1.2880745528659516E-9    1.5747413829834722E-9    2.2362658072295988E-9    2.2883013003276206E-9    1.873577349934226E-9     1.0729081575100938E-9    1.7679202173313013E-11
3.5E-5                    6.863663830394703E-12    -2.43710346512843E-10    2.835364351246806E-10    7.525758004405617E-10    1.6386936729359922E-9    2.0632843385239097E-9    2.693208272990128E-9     2.739660147985779E-9     2.3231337154587785E-9    1.496982505240972E-9     3.27320769620232E-10
3.5499999999999996E-5     -1.0104728682126772E-10  -3.6711689201121555E-10  3.752601919643702E-10    1.0019542725322152E-9    1.9924784126988065E-9    2.570120830314395E-9     3.1303686586247804E-9    3.1723269919236515E-9    2.7785265826482216E-9    1.954578461789646E-9     6.972313110410907E-10
3.6E-5                    -2.348284404072625E-10   -4.996266496025569E-10   4.719935671669524E-10    1.2635544025538232E-9    2.3383878387393765E-9    3.0733895454595586E-9    3.5255567490327324E-9    3.5592928646290375E-9    3.2127558121681766E-9    2.4247501432217698E-9    1.1216116376796782E-9
3.65E-5                   -3.9281459125800113E-10  -6.371803205738464E-10   5.700381806903614E-10    1.5229333356528741E-9    2.6636102353315356E-9    3.5493419900511665E-9    3.855133053955897E-9     3.871958395228943E-9     3.594951580108963E-9     2.8850683752946456E-9    1.5918605672440776E-9
3.7E-5                    -5.692595754860073E-10   -7.745402303195943E-10   6.621769199862592E-10    1.7633845622459978E-9    2.9493159374909776E-9    3.972281454585092E-9     4.095939846773018E-9     4.083511199514707E-9     3.897424075795563E-9     3.3169187390346868E-9    2.096795215133758E-9
3.75E-5                   -7.581702190571082E-10   -9.046551811920601E-10   7.433382399308775E-10    1.9698085086243987E-9    3.170915569646593E-9     4.314474200991891E-9     4.225372712104236E-9     4.170647550486436E-9     4.096846776497275E-9     3.70462391790109E-9      2.6214328062211515E-9
3.7999999999999995E-5     -9.555207459613637E-10   -1.0200242145976972E-9   8.134692230297481E-10    2.128993075521356E-9     3.302513156523881E-9     4.5466367258479814E-9    4.218806623173045E-9     4.112548779331781E-9     4.171067597475475E-9     4.029318307612985E-9     3.146801803394993E-9
3.85E-5                   -1.1576948929245813E-9   -1.114186157161022E-9    8.730825755437075E-10    2.226526509357473E-9     3.3206066762879396E-9    4.639185362479948E-9     4.048207366634352E-9     3.888167417646506E-9     4.096490185166387E-9     4.263406729660861E-9     3.651136281450036E-9
3.9E-5                    -1.3580407404329186E-9   -1.1813392650924243E-9   9.159267265570273E-10    2.2454086581205537E-9    3.2051867808197466E-9    4.564100964587963E-9     3.685464108646918E-9     3.474783166720879E-9     3.847902631945815E-9     4.371003384888835E-9     4.110377023901272E-9
3.95E-5                   -1.5447180885594941E-9   -1.214740746025521E-9    9.278571676895666E-10    2.1693379247499466E-9    2.9400215404830137E-9    4.296380589542326E-9     3.108352978221486E-9     2.8499738643299754E-9    3.3998768550392206E-9    4.314618497994639E-9     4.497106967497397E-9
3.9999999999999996E-5     -1.701391426986996E-9    -1.205803701921897E-9    8.945709086619756E-10    1.9872869666583475E-9    2.5126752826829824E-9    3.8140906209786124E-9    2.3040562004891665E-9    1.9963616120352414E-9    2.729862007977476E-9     4.063031994214074E-9     4.779877140955587E-9
4.0499999999999995E-5     -1.8102179763103312E-9   -1.1446674399561118E-9   8.104972893752441E-10    1.6939822610013337E-9    1.9137397520049307E-9    3.098101236602159E-9     1.2688691051211154E-9    9.066183203515112E-10    1.8234741405557137E-9    3.5946134364271065E-9    4.924768267364742E-9
4.1E-5                    -1.855233695395541E-9    -1.0219259080092093E-9   6.795744612947895E-10    1.2858522691377542E-9    1.136922560256627E-9     2.1339275655819684E-9    7.099608377056006E-12    -4.137178724192585E-10   6.795091537444122E-10    2.8951911848010432E-9    4.898099927181824E-9
4.15E-5                   -1.8238930764901455E-9   -8.309212426213261E-10   5.079995989463763E-10    7.57498381700559E-10     1.815037343072458E-10    9.159129461179429E-10    -1.4687801707021451E-9   -1.9465324909288937E-9   -6.89527007306098E-10    1.9548596306670523E-9    4.6679434676895215E-9
4.2E-5                    -1.7058877984792077E-9   -5.693912424159903E-10   2.9786988124961866E-10   1.0335778332667386E-10   -9.452514799963953E-10   -5.491968461371944E-10   -3.137629043860596E-9    -3.6630785313674416E-9   -2.2617930663954903E-9   7.680223972982544E-10    4.204296647517797E-9
4.2499999999999996E-5     -1.49104560230801E-9     -2.3907388457369393E-10  4.8503781076713E-11      -6.760502090480585E-10   -2.228332101147393E-9    -2.241860097605198E-9    -4.969209069382562E-9    -5.525052858839652E-9    -4.010370916085717E-9    -6.634311330836137E-10   3.4800126358872473E-9
4.2999999999999995E-5     -1.169271818187863E-9    1.5629504754446931E-10   -2.3745427162122394E-10  -1.5683197659989998E-9   -3.645314634198192E-9    -4.1316301869347755E-9   -6.922529816034061E-9    -7.484351929402283E-9    -5.9023892988964754E-9   -2.3264880431365083E-9   2.4738368299550257E-9
4.35E-5                   -7.33192721094439E-10    6.120731765025923E-10    -5.512620103225032E-10   -2.5484706783105913E-9   -5.163246423887094E-9    -6.178371315467871E-9    -8.943159585976414E-9    -9.483419497376194E-9    -7.893673346946071E-9    -4.194388754205755E-9    1.1747146019595816E-9
4.4E-5                    -1.808767694754221E-10   1.1213112050210696E-9    -8.81929639181291E-10    -3.583589874850693E-9    -6.73506022430517E-9     -8.33114252030471E-9     -1.0962279379918285E-8   -1.1456698336550158E-8   -9.924074370036652E-9    -6.2253111126768E-9      -4.144419321954907E-10
4.45E-5                   4.839931601610609E-10    1.6723794790978567E-9    -1.221634815507725E-9    -4.638370337531711E-9    -8.301634819704201E-9    -1.052577526940103E-8    -1.2899425296140119E-8   -1.333089033351223E-8    -1.191744460020528E-8    -8.363062636306058E-9    -2.2750944988471245E-9
4.4999999999999996E-5     1.253743736173196E-9     2.2481719140931884E-9    -1.5656338687326375E-9   -5.6765093140944984E-9   -9.798763695917908E-9    -1.2683795140692221E-8   -1.4667731544163896E-8   -1.5023074470064248E-8   -1.378611876196567E-8    -1.0539724643007051E-8   -4.374326239621822E-9
4.5499999999999995E-5     2.117088938588448E-9     2.8272159335305722E-9    -1.9059829332682838E-9   -6.657142373286669E-9    -1.116164979597518E-8    -1.4714721970680623E-8   -1.617878526808206E-8    -1.6440023783942612E-8   -1.5437284324207233E-8   -1.2678089095226665E-8   -6.667861122488915E-9
4.6E-5                    3.0569704745553116E-9    3.384980531939288E-9     -2.2258439048793852E-9   -7.530521218006562E-9    -1.232346800822472E-8    -1.65211642197867E-8     -1.734488324466274E-8    -1.748268332615501E-8    -1.6778458187659025E-8   -1.469213805208607E-8    -9.10147582688214E-9
4.65E-5                   4.0478683444320904E-9    3.894474480539785E-9     -2.5012225894500592E-9   -8.238136229711617E-9    -1.3212786674981739E-8   -1.8003964021859888E-8   -1.807911056635295E-8    -1.8055192762301327E-8   -1.7720287967634148E-8   -1.6487100160476112E-8   -1.1608300461527815E-8
4.7E-5                    5.055213668678332E-9     4.327119630798609E-9     -2.7092763596822802E-9   -8.718831040730866E-9    -1.3755558215399043E-8   -1.9065633606200346E-8   -1.829676241490753E-8    -1.8073533932034203E-8   -1.817696809244469E-8    -1.7961795237320172E-8   -1.410406321652204E-8
4.7499999999999996E-5     6.037196498516279E-9     4.654810539707051E-9     -2.8353281206232966E-9   -8.917692074729714E-9    -1.3881704667552355E-8   -1.9613115456176025E-8   -1.7920940969161218E-8   -1.7469473676848243E-8   -1.806673870756083E-8    -1.9013029050448428E-8   -1.6485482301752543E-8
4.8E-5                    6.947231785690314E-9     4.8521084049943445E-9    -2.872533108583093E-9    -8.792304950233764E-9    -1.3532606168215646E-8   -1.9561490695621023E-8   -1.6889751210357546E-8   -1.6190037471984754E-8   -1.731483604702123E-8    -1.953942464306242E-8    -1.8634672466808297E-8
4.85E-5                   7.735581904420804E-9     4.896610374186149E-9     -2.816715642345998E-9    -8.31283926768819E-9     -1.2666247515063027E-8   -1.883834277726906E-8    -1.5160028385962147E-8   -1.4196832080916567E-8   -1.585902337335429E-8    -1.9444062941571325E-8   -2.0427494290321625E-8