% Model:              Untitled.mph
% Version:            COMSOL 6.0.0.405
% Date:               Jul 17 2025, 06:47
% Dimension:          1
% Nodes:              401
% Expressions:        11
% Description:        Point graph
% Time (s)                Displacement field, Y component Displacement field, Y component Displacement field, Y component Displacement field, Y component Displacement field, Y component Displacement field, Y component Displacement field, Y component Displacement field, Y component Displacement field, Y component Displacement field, Y component Displacement field, Y component
0                         -1.3275303467675424E-33  -5.1605403258887305E-33  -5.5466457539751984E-33  -4.183495216329026E-33   -4.380082828164538E-34   -9.135219431027633E-34   -3.899360774660254E-35   8.192981389662875E-34    8.46566990473021E-33     3.0057875620944833E-32   6.221102648891063E-33
5.0E-7                    1.7477376775306067E-25   7.470841401715707E-25    8.0216426875048385E-25   6.217560477814302E-25    5.80640384429762E-26     1.0969033423973784E-25   4.7546749867905E-27      -1.1309357005811712E-25  -1.2426275168714231E-24  -4.5532707206703604E-24  -8.429604225002445E-25
1.0E-6                    1.2600303983974224E-25   -3.593448707015861E-25   -1.1166005693955697E-24  -9.824511530892138E-25   -1.082751421310398E-25   -1.967235135871989E-25   -3.820426870258686E-27   1.0428240015740183E-25   1.608034134897676E-24    6.3982186701942625E-24   1.3685702898141024E-24
1.5E-6                    -2.01575506701736E-24    -3.8198051401175366E-25  1.2569699061486366E-24   -1.4839118346480233E-25  -1.380323200848692E-25   -5.572142863534824E-25   -2.196036323989287E-26   1.0403519988442554E-25   -5.56546290693199E-25    -4.400778384260395E-24   1.1133207922097695E-24
2.0E-6                    3.374933492207587E-24    -2.2180055924651976E-24  -1.3069274266260386E-24  1.6557091029847574E-25   4.914427890634713E-24    9.835912372942539E-24    3.008217716072517E-25    -2.9220028163678036E-25  -3.7448771664371486E-25  -8.258608898346579E-26   -1.887743860669258E-23
2.4999999999999998E-6     7.019565328174954E-24    -4.14881982962519E-23    2.1449882908057095E-23   2.0601688511474478E-23   -2.175031266378444E-23   -2.9360973160485626E-23  -1.7197457657240666E-24  1.8901247981989394E-24   -4.839932727478366E-24   7.369147299644564E-23    6.720600182960747E-23
3.0E-6                    -8.688199663807915E-24   1.5386917627479345E-22   -6.113069162937283E-23   -5.020826709226005E-23   8.816420966371313E-24    -1.9390321014067592E-23  3.643253054380282E-24    3.722250437605977E-24    -6.485619959561572E-24   -3.452992125325322E-22   8.039959097456718E-23
3.5E-6                    -1.035355799635315E-22   -3.0148685763418472E-22  -2.9957345622588812E-22  -5.128011114045694E-22   1.2574925961753857E-22   9.689880257558448E-23    4.26491109809774E-24     -1.8750400145340538E-23  2.86474932115796E-22     1.0690977933307558E-21   -3.0703663154106985E-23
4.0E-6                    1.3419075996577898E-22   -6.67981467938542E-22    5.044467066840154E-22    1.5292761670262573E-21   -8.680971585511942E-23   4.464568367178626E-22    -2.953909232337888E-23   -1.970997072815559E-23   -3.2509455476807423E-22  1.6588728128643227E-21   -1.8584947593654097E-21
4.5E-6                    -7.444407307676387E-23   2.8161895372489865E-22   4.06825784874294E-22     1.1074193588635536E-22   -6.650374704015926E-22   -2.528500369429731E-22   1.0023755836138508E-23   3.586269035197209E-22    1.773927447496988E-21    3.594462176226207E-21    -2.0764035909003983E-22
4.9999999999999996E-6     -1.1113798885075529E-21  -7.856363336958841E-21   -7.101600860040155E-21   -1.1308851711449612E-20  -2.251752258921433E-22   -4.967943517983324E-21   1.2925241747032154E-22   4.943606283971044E-22    7.487939501355648E-21    7.388154962394649E-21    1.764631118223992E-20
5.5E-6                    1.3775791378195418E-21   -2.930680834932517E-20   -2.515475056999029E-20   1.8371940752664708E-20   2.020182249020823E-21    -1.1818357998648761E-21  -8.655693717515108E-23   -2.0994281415027036E-21  1.4651484703697283E-20   3.9053303423500576E-20   1.969848394962968E-20
6.0E-6                    -5.720016693430481E-21   -4.008351102119533E-20   -3.043863970551486E-20   3.6619174647614614E-20   3.5656484836193394E-21   3.074709155490075E-20    -4.361947850207958E-22   -1.7294218377838513E-21  8.780442113892797E-20    2.7937225836803845E-19   -8.030312054349759E-20
6.5E-6                    -4.344811780331821E-20   -1.5086457634605138E-19  -9.832295984275704E-20   -2.9426228550620298E-19  -3.330246712603725E-21   3.122858767142151E-20    2.269670458000311E-22    2.1776170289071483E-20   3.502624283679092E-19    8.468512035023166E-19    -1.7148981421047164E-19
7.0E-6                    -4.702781216244227E-20   -9.052227621123372E-19   -6.819098644660074E-19   -4.73322561821144E-19    -4.6480561522784267E-20  -1.1941374621779444E-19  1.2398051999062992E-21   4.827461551697752E-20    1.069848628743492E-18    1.6548848689743143E-18   3.2060321190524654E-19
7.499999999999999E-6      -6.652032724832646E-20   -2.930005423206456E-18   -2.011854545012438E-18   1.437081661859885E-18    -8.893265865414796E-20   -2.7477585949239856E-19  9.542283824484775E-22    2.0489562666672558E-21   3.5239598218805796E-18   5.040562926630608E-18    1.3292400069853939E-18
8.0E-6                    -7.854153940031275E-19   -6.623742959339493E-18   -4.236557734987879E-18   2.3156051437641358E-18   1.387515599439311E-19    1.5554948875817494E-19   -7.50636603618036E-22    8.409925010386697E-20    1.189426912358043E-17    2.1632946219879087E-17   3.665080626989268E-19
8.5E-6                    -2.9337465293923815E-18  -1.7559854649026367E-17  -1.371487302621384E-17   -1.0078729516956598E-17  3.930428653764764E-19    1.303254022876193E-18    -1.089814568477903E-20   1.0195708955984616E-18   3.7800591617101215E-17   6.8915091020561E-17      -3.58235506007776E-18
9.0E-6                    -6.838003489281313E-18   -6.014242248919782E-17   -4.8057292173116674E-17  -2.8911582538030025E-17  -1.2250635244800272E-18  1.0763583974372364E-18   -2.35721841465497E-20    3.134514480482623E-18    1.1349192315582057E-16   1.6923766170037094E-16   -1.4938271460322512E-18
9.499999999999999E-6      -1.842733648884792E-17   -1.8439038915237406E-16  -1.2915233747243218E-16  -5.2289662457106354E-18  -4.6168263578667346E-18  -3.871355036897155E-18   3.2377841947501106E-20   6.452913342348015E-18    3.2913847453724176E-16   4.309469629940623E-16    1.8555625205647375E-17
9.999999999999999E-6      -5.991023696301134E-17   -4.682166322928586E-16   -3.1710488956585787E-16  4.414805225014678E-17    -2.5460073698843436E-18  -9.944412348015525E-18   1.5273902996010276E-19   1.7447140856700878E-17   9.357015910938204E-16    1.2563714149566378E-15   4.509447131988951E-17
1.05E-5                   -1.7796014367387456E-16  -1.1165197254900292E-15  -8.581348934029633E-16   -1.1453747800525323E-16  4.200172975758425E-18    -9.748740361645412E-19   -4.647034531561886E-20   6.024397438116748E-17    2.5867754625213937E-15   3.4842611573541228E-15   4.892200543712593E-17
1.1E-5                    -4.811402643560437E-16   -2.793997699851092E-15   -2.3426741493004E-15     -7.00852617962092E-16    -1.8710564461614157E-17  2.707673373812166E-17    -8.429374194435025E-19   1.812705695408186E-16    6.8556849167885694E-15   8.596801365030043E-15    6.46296127296826E-17
1.15E-5                   -1.2716582440326703E-15  -7.106582133208256E-15   -5.839269407072989E-15   -1.4260843676621264E-15  -1.0304902959011343E-16  2.3991512519738056E-17   -9.983745962153418E-19   4.644205562871E-16       1.7431963362087687E-14   2.033314003660016E-14    2.855658988775448E-16
1.2E-5                    -3.3090261375398004E-15  -1.7024279300077424E-14  -1.3834069414691632E-14  -2.0697151521546356E-15  -2.0196623425363411E-16  -7.582017249055934E-17   1.2476141323411762E-18   1.1425889950579096E-15   4.287537192090306E-14    4.8677196262407765E-14   1.0211380187031521E-15
1.2499999999999999E-5     -8.34565844126448E-15    -3.778127035079363E-14   -3.3066813868315093E-14  -4.656567316235711E-15   -2.9387314412410615E-16  -2.127815803023444E-16   2.7456770590619794E-18   2.9093197932648438E-15   1.0222182468026952E-13   1.142529400115926E-13    2.5065429089770436E-15
1.3E-5                    -2.0447696591545515E-14  -7.983848005918399E-14   -7.833295204815267E-14   -1.4494057577043067E-14  -7.013693544850818E-16   -2.1202125330499335E-16  -5.42738908725132E-18    7.432498776249385E-15    2.353680946675698E-13    2.5371031086445154E-13   5.128081912018824E-15
1.35E-5                   -4.887695748418226E-14   -1.6437167550030348E-13  -1.7686653234090787E-13  -3.778051720096936E-14   -2.162646553559263E-15   -1.255804199219271E-16   -2.4156666019704903E-17  1.8159021077125285E-14   5.207629834771996E-13    5.37891176896722E-13     1.0989141877381345E-14
1.4E-5                    -1.1324590121273501E-13  -3.284746147567214E-13   -3.820054386242518E-13   -8.159357497140127E-14   -5.5086143705562875E-15  -4.473120449759411E-16   -3.724656804596295E-17   4.2253838479286295E-14   1.1012282817839596E-12   1.1086303421408414E-12   2.6252907194008402E-14
1.45E-5                   -2.5202631958625353E-13  -6.276103905828518E-13   -8.071037018933186E-13   -1.6654602928315162E-13  -1.2018321804824192E-14  -1.6920211355064752E-15  -4.180839086001643E-17   9.52377273647799E-14     2.215770951666245E-12    2.2047329993154807E-12   6.185411623514668E-14
1.4999999999999999E-5     -5.365444080615048E-13   -1.137571491768416E-12   -1.6645219377929372E-12  -3.48982482264551E-13    -2.54883332126078E-14    -4.1554342498629604E-15  -9.114213099074444E-17   2.0901612195134973E-13   4.2354743227946084E-12   4.1577619392564245E-12   1.3429574099134285E-13
1.55E-5                   -1.0922672906906616E-12  -1.957050168900991E-12   -3.2787793515790877E-12  -7.315355718292243E-13   -5.5252818993933964E-14  -9.078943650171259E-15   -2.8081518243073725E-16  4.4277382847662303E-13   7.688945730351021E-12    7.424194487853011E-12    2.7601941715079874E-13
1.6E-5                    -2.125428524324669E-12   -3.217085646590582E-12   -6.094806046749497E-12   -1.4532111705182332E-12  -1.196025267756036E-13   -1.9742628715655358E-14  -7.356577771985563E-16   8.978984076712999E-13    1.3199673591725991E-11   1.2645292231561349E-11   5.572597720140521E-13
1.6499999999999998E-5     -3.945249390924407E-12   -5.147640340338126E-12   -1.0710650044463342E-11  -2.6924619739032215E-12  -2.522672568281737E-13   -3.96656112452717E-14    -1.7323590384982033E-15  1.7397570527630774E-12   2.1184628571066102E-11   2.0378382226230167E-11   1.0981531924043786E-12
1.7E-5                    -6.952821586485712E-12   -8.247252075267486E-12   -1.7755890472809217E-11  -4.719285966235462E-12   -5.136660901812082E-13   -7.17110698813283E-14    -3.806390929502546E-15   3.2224436444820997E-12   3.129568472451903E-11    3.0247957961505596E-11   2.058524282372475E-12
1.75E-5                   -1.1531384062292942E-11  -1.3348968537923244E-11  -2.730383678972574E-11   -7.92732826148742E-12    -1.0018583093645054E-12  -1.2909757560671733E-13  -7.678768848594353E-15   5.694165054122863E-12    4.205574950236998E-11    4.041487703854241E-11    3.645648401510143E-12
1.8E-5                    -1.7775202181619977E-11  -2.1085481968875456E-11  -3.8061887061591435E-11  -1.2646192438628687E-11  -1.861859465419402E-12   -2.5668448299666844E-13  -1.4939006056254873E-14  9.532362127768662E-12    5.142474822548764E-11    4.8795479102421106E-11   6.1624005994129764E-12
1.85E-5                   -2.5154211561394815E-11  -3.076290276537145E-11   -4.743307019530541E-11   -1.864376116984955E-11   -3.309399968747516E-12   -5.311027218632838E-13   -3.0888258305224307E-14  1.49454044827025E-11     5.819499489874914E-11    5.518047672185701E-11    9.9551671990715E-12
1.8999999999999998E-5     -3.24712787365687E-11    -3.998322116417114E-11   -5.305040904557223E-11   -2.4704332661623963E-11  -5.664867998629029E-12   -1.0129408298123205E-12  -6.793426824729762E-14   2.1671926031282815E-11   6.261262425633975E-11    6.087293342110379E-11    1.5058291631393992E-11
1.95E-5                   -3.840324665951716E-11   -4.639807953046445E-11   -5.435346731558436E-11   -2.9009967606266474E-11  -9.292274721597884E-12   -1.7049812276487173E-12  -1.451126809225592E-13   2.8837988486410104E-11   6.492209253191574E-11    6.520797993987723E-11    2.0688954150092932E-11
1.9999999999999998E-5     -4.226381145296616E-11   -5.0168119444352416E-11  -5.2066987106602934E-11  -3.0413170671757204E-11  -1.4276170108475687E-11  -2.645759527103632E-12   -2.859729097607309E-13   3.5297209891141715E-11   6.347341937641615E-11    6.407088483108819E-11    2.521388089641445E-11
2.05E-5                   -4.410496387051022E-11   -5.337329691430506E-11   -4.6036032307002495E-11  -2.9308070701463814E-11  -1.9889116772490538E-11  -4.1534256043142694E-12  -5.294241521459851E-13   4.0292916225092944E-11   5.554008675756174E-11    5.403949667044132E-11    2.695987349495476E-11
2.1E-5                    -4.393098277717114E-11   -5.586710815921475E-11   -3.447615849609252E-11   -2.6644036034111243E-11  -2.4362468852145408E-11  -6.920265451720927E-12   -9.61654484210308E-13    4.3651577040792107E-11   4.0345655110651467E-11   3.6606793284897876E-11   2.5245497179549706E-11
2.1499999999999997E-5     -4.106264502045883E-11   -5.310835995545354E-11   -1.585680265021389E-11   -2.1899254900453317E-11  -2.5572784646013114E-11  -1.1539740159747871E-11  -1.7421964550587248E-12  4.508471421506961E-11    1.9601560729093682E-11   1.5106247970306406E-11   2.055314735162941E-11
2.2E-5                    -3.456946087885916E-11   -4.040604017404165E-11   9.394805099717769E-12    -1.2967125100138462E-11  -2.2449474459531175E-11  -1.7574683506825516E-11  -3.0753732363815766E-12  4.351934534463238E-11    -6.202685869801095E-12   -1.172440617738949E-11   1.3695700275835282E-11
2.2499999999999998E-5     -2.4015457476245046E-11  -1.866764300106832E-11   3.9950180080339964E-11   1.060048269586438E-12    -1.5803979824864135E-11  -2.312253065485227E-11   -5.118850124689191E-12   3.767493592753444E-11    -4.058435020411976E-11   -4.912867454403851E-11   5.022042925370988E-12
2.3E-5                    -9.159456802303664E-12   7.102413369539232E-12    7.561114878726777E-11    1.7834804507577727E-11   -7.443518734508506E-12   -2.581421757713385E-11   -7.889620799731102E-12   2.7290402439880894E-11   -8.822243744749274E-11   -9.937194348280646E-11   -5.501679980287375E-12
2.35E-5                   1.1046603485047053E-11   3.5402780700499276E-11   1.1723550658615355E-10   3.4248624408068874E-11   1.7080216605253908E-12   -2.4706871287078752E-11  -1.122607408494726E-11   1.3002049165718516E-11   -1.5012665732348038E-10  -1.5983747968647265E-10  -1.7764634737335584E-11
2.4E-5                    3.8512750527977173E-11   7.098238012134912E-11    1.6529789067210105E-10   5.098347524375723E-11    1.2286655916504373E-11   -2.1038739450297204E-11  -1.478301083934985E-11   -5.407081481500492E-12   -2.2349300538851946E-10  -2.285684702521446E-10   -3.148096412321296E-11
2.45E-5                   7.483851307975683E-11    1.183683591979477E-10    2.1981297003730513E-10   7.252579498734626E-11    2.5032319176475285E-11   -1.6568864615261807E-11  -1.8008106267178352E-11  -2.999555241367684E-11   -3.0551329901625595E-10  -3.0652304504757835E-10  -4.676169357154482E-11
2.4999999999999998E-5     1.2045368273071703E-10   1.756546830550795E-10    2.8095591710399947E-10   1.0173780433115779E-10   3.916025944805783E-11    -1.1049498107777164E-11  -2.015404582148903E-11   -6.32261247224167E-11    -3.948156991703243E-10   -3.924864017121295E-10   -6.445967831054278E-11
2.55E-5                   1.7493627649865202E-10   2.3740929962008654E-10   3.476504347740507E-10    1.3624836232591833E-10   5.3048012365312475E-11   -1.9163532814801183E-12  -2.0463167444637793E-11  -1.0579614992787211E-10  -4.892373436002616E-10   -4.808165804341159E-10   -8.562101578990031E-11
2.6E-5                    2.374717342888588E-10    3.01575176788332E-10     4.1541552123459007E-10   1.716600417953074E-10    6.658890518431772E-11    1.2990825547041522E-11   -1.8509291238180137E-11  -1.5633114161517334E-10  -5.848472408208446E-10   -5.671640832614618E-10   -1.1038602731297507E-10
2.65E-5                   3.0636695450281433E-10   3.7012252653529177E-10   4.777931940538566E-10    2.0648122285166616E-10   8.189675018797283E-11    3.265164887253968E-11    -1.4406066238205044E-11  -2.128413089825056E-10   -6.780348743038205E-10   -6.518964516172548E-10   -1.3736631057373815E-10
2.7E-5                    3.7828210447151615E-10   4.437413478611204E-10    5.307760871265637E-10    2.414487679205032E-10    1.0098028883169666E-10   5.345708248033934E-11    -8.595806832742848E-12   -2.7386456493332396E-10  -7.664276574323905E-10   -7.341070088016172E-10   -1.6410534007280845E-10
2.7499999999999998E-5     4.487490468135275E-10    5.189874727832284E-10    5.739586779842962E-10    2.7509671752753666E-10   1.2313912606999822E-10   7.27167060289062E-11     -1.3503812115361268E-12  -3.3832693570077325E-10  -8.462740053745874E-10   -8.057654717910223E-10   -1.8819207588140244E-10
2.8E-5                    5.141101031322612E-10    5.905404567568763E-10    6.061124544916816E-10    3.0312497700226074E-10   1.4521730799838812E-10   9.109065407934776E-11    7.524854873881714E-12    -4.048119789213755E-10   -9.100679598229469E-10   -8.55646996361218E-10    -2.081199309901293E-10
2.8499999999999998E-5     5.727166964678026E-10    6.534728565031598E-10    6.213155840741696E-10    3.223708224105727E-10    1.63986007135064E-10     1.1121830423677843E-10   1.8519900212589587E-11   -4.710202043317913E-10   -9.479277285645762E-10   -8.762307141252835E-10   -2.233788219552472E-10
2.9E-5                    6.233582600983476E-10    7.027411126363732E-10    6.109508684064657E-10    3.3257972492568947E-10   1.7763542986708488E-10   1.342863587541008E-10    3.2100488270925014E-11   -5.336644340794712E-10   -9.50473155307932E-10    -8.629534452303514E-10   -2.337845546585087E-10
2.95E-5                   6.62285334467788E-10     7.326779479055492E-10    5.67922875042336E-10     3.330541944523846E-10    1.8554735634252755E-10   1.5843183682234956E-10   4.869250539599252E-11    -5.887300693264283E-10   -9.093871777248285E-10   -8.090408160880551E-10   -2.38388727113249E-10
2.9999999999999997E-5     6.824177476796092E-10    7.378777587195728E-10    4.869727619780145E-10    3.1965120468550647E-10   1.8784219698595353E-10   1.803760241305604E-10    6.887272160043375E-11    -6.316564997867954E-10   -8.162481574846443E-10   -7.051925971088011E-10   -2.347833155954589E-10
3.05E-5                   6.754939908325009E-10    7.129089314623375E-10    3.623728168867846E-10    2.868753905455157E-10    1.8496317037677201E-10   1.9799318557449203E-10   9.322103830862955E-11    -6.570916400771683E-10   -6.627175807459962E-10   -5.433479901292613E-10   -2.196495662902326E-10
3.1E-5                    6.340780875488244E-10    6.503104077555039E-10    1.884590643943148E-10    2.3186800992847188E-10   1.7615586625745138E-10   2.109954755449985E-10    1.2165042259530094E-10   -6.587210326107032E-10   -4.421347590458242E-10   -3.177037493158412E-10   -1.9020163405613809E-10
3.15E-5                   5.516276734049433E-10    5.405916765523623E-10    -3.707790593226841E-11   1.5467902104782784E-10   1.5786327778596787E-10   2.1947575474688277E-10   1.5273994710034994E-10   -6.297957106331971E-10   -1.4986504338180094E-10  -2.313187088236752E-11   -1.4498022954056625E-10
3.2E-5                    4.2241806516829014E-10   3.7583752368041263E-10   -3.120443560750947E-10   5.517182153119205E-11    1.2505242117498868E-10   2.2216790148268043E-10   1.8370681070978002E-10   -5.638720634004417E-10   2.178699670034588E-10    3.4403282971218115E-10   -8.326421820391433E-11
3.25E-5                   2.423657878509417E-10    1.527352102448843E-10    -6.318587034058877E-10   -6.857550796867648E-11   7.526783059550154E-11    2.1597694925004194E-10   2.1112131728051672E-10   -4.549771289446896E-10   6.637747532428142E-10    7.832100613127478E-10    -4.266404822728821E-12
3.2999999999999996E-5     9.019654878756864E-12    -1.2882695140880759E-10  -9.913570970469945E-10   -2.1848200314123181E-10  1.0575240778264592E-11   1.9689883359336326E-10   2.3201244232458716E-10   -2.9764219248851265E-10  1.186775647678334E-9     1.2890460815575537E-9    9.262312897322567E-11
3.35E-5                   -2.7945419637579924E-10  -4.689311442026139E-10   -1.3847780402854288E-9   -3.9414627236128245E-10  -6.561969098730316E-11   1.6159576465013354E-10   2.448489876769989E-10    -8.766713268207322E-11   1.7796890066113519E-9    1.8529891388192552E-9    2.070148012484325E-10
3.4E-5                    -6.236001154666414E-10   -8.673346318498548E-10   -1.8054864103661255E-9   -5.924853966004425E-10   -1.530312429320797E-10   1.086235424836637E-10    2.4971060145542697E-10   1.768033413430413E-10    2.4295749088507236E-9    2.4632613528161393E-9    3.3724686315952933E-10
3.45E-5                   -1.0201490594309744E-9   -1.319852693758754E-9    -2.244960386033894E-9    -8.084223858487085E-10   -2.54332314932775E-10    3.834867464514267E-11    2.470891872896191E-10    4.948892541527499E-10    3.1191172365465164E-9    3.102927369764819E-9     4.805984051016983E-10
3.5E-5                    -1.461424009027855E-9    -1.8165903700689534E-9   -2.6893642211540606E-9   -1.0351521555155042E-9   -3.705455193567512E-10   -4.848250062989362E-11   2.358255165601677E-10    8.631406936942264E-10    3.826651908539542E-9     3.749199281201164E-9     6.332606172368771E-10
3.5499999999999996E-5     -1.9376848535485074E-9   -2.34430607908552E-9     -3.116570756865841E-9    -1.2644530961187987E-9   -4.978523193805754E-10   -1.5205996460789012E-10  2.1198403590180495E-10   1.2755279501572133E-9    4.525480282214984E-9     4.374775934600602E-9     7.901628344510599E-10
3.6E-5                    -2.43794740849732E-9     -2.888951078601503E-9    -3.498533672700702E-9    -1.487448011368207E-9    -6.293352147323325E-10   -2.7312428297006625E-10  1.701322212318756E-10    1.7233554006301387E-9    5.184143958813684E-9     4.9487773285674165E-9    9.451437760293401E-10
3.65E-5                   -2.94680856550004E-9     -3.4341381951522523E-9   -3.807203155291965E-9    -1.6945151109903182E-9   -7.586841207093857E-10   -4.112528294023494E-10   1.062211205956765E-10    2.1954080292109273E-9    5.76724643686437E-9      5.436326963895014E-9     1.091158918964371E-9
3.7E-5                    -3.441804562732114E-9    -3.957149572671503E-9    -4.016822541179457E-9    -1.873980354108796E-9    -8.811364940059547E-10   -5.637897208295452E-10   1.9488980338129848E-11   2.677654891321534E-9     6.235687496730078E-9     5.798898490828659E-9     1.2200431114489351E-9
3.75E-5                   -3.895853955624738E-9    -4.427613073883733E-9    -4.101226938348922E-9    -2.0118919968993966E-9   -9.912283020603224E-10   -7.263059288132534E-10   -8.823372558501211E-11   3.1519368320462297E-9    6.5469500792785024E-9    5.996611807513601E-9     1.322405339965564E-9
3.7999999999999995E-5     -4.281705840327449E-9    -4.810681667957346E-9    -4.032561378882621E-9    -2.0941970718319545E-9   -1.0808149406141038E-9   -8.93298699248916E-10    -2.1481002041151775E-10  3.59483550626791E-9      6.65673420022795E-9      5.990543241662573E-9     1.3884876973666963E-9
3.85E-5                   -4.572459752027857E-9    -5.071508761617136E-9    -3.784787268068408E-9    -2.1086291616856878E-9   -1.1398265583993645E-9   -1.0578411324182119E-9   -3.593692639411606E-10   3.978568779860983E-9     6.521673567331645E-9     5.74351233039277E-9      1.409456771787964E-9
3.9E-5                    -4.738810150854707E-9    -5.177378889033604E-9    -3.3373247437322338E-9   -2.0435882720692013E-9   -1.1588221371975567E-9   -1.2109290587969945E-9   -5.219868275156632E-10   4.273750731834083E-9     6.101868919762542E-9     5.221048275490869E-9     1.377787407757476E-9
3.95E-5                   -4.748770312174018E-9    -5.097358913213896E-9    -2.6748791775411715E-9   -1.886221292770408E-9    -1.130917721854201E-9    -1.342026860973609E-9    -7.020858622644461E-10   4.451728445003092E-9     5.362725245454381E-9     4.394322773581124E-9     1.286575757660556E-9
3.9999999999999996E-5     -4.571232896986093E-9    -4.801789230102551E-9    -1.786595199228111E-9    -1.6237711415591527E-9   -1.051757237170351E-9    -1.4405598445471737E-9   -8.968146171376071E-10   4.484861804905823E-9     4.27646694736973E-9      3.2433587535044564E-9    1.1290328556726856E-9
4.0499999999999995E-5     -4.178768128891827E-9    -4.2632325979306675E-9   -6.684527962363001E-10   -1.2474808020067982E-9   -9.179871324480668E-10   -1.496584224231451E-9    -1.1002073046348938E-9   4.345687435671243E-9     2.823840190580352E-9     1.7581223752506569E-9    8.991488139741974E-10
4.1E-5                    -3.547338691216577E-9    -3.4586382402445774E-9   6.731827874168507E-10    -7.544926699374407E-10   -7.258996880018534E-10   -1.4999885883842042E-9   -1.3033419496290742E-9   4.00719777368035E-9      9.96458461058269E-10     -6.119273566223105E-11   5.932889559045134E-10
4.15E-5                   -2.65650584940931E-9     -2.3716624673977635E-9   2.2207451969050296E-9    -1.4648166133361E-10     -4.718721273227362E-10   -1.439780227234599E-9    -1.4952555970601076E-9   3.4451456899729564E-9    -1.2000591973540412E-9   -2.201759554550734E-9    2.118222664952391E-10
4.2E-5                    -1.493053738978715E-9    -9.945369852132729E-10   3.946397368819095E-9     5.71336382230377E-10     -1.5456585980918073E-10  -1.3051637437709987E-9   -1.66399974873308E-9     2.6411806300562072E-9    -3.74293977402673E-9     -4.634223865475081E-9    -2.400632928111261E-10
4.2499999999999996E-5     -5.5341674168553685E-11  6.702534225530384E-10    5.811237424205168E-9     1.3884353655788707E-9    2.230807650379921E-10    -1.0879793159154904E-9   -1.797208304624894E-9    1.5851171066481795E-9    -6.590440817574591E-9    -7.310700764796026E-9    -7.52784980150829E-10
4.2999999999999995E-5     1.6453283673262488E-9    2.6078227713501783E-9    7.763251533701804E-9     2.286813684389144E-9     6.537908274337858E-10    -7.843777420024088E-10   -1.8820705850711432E-9   2.7592416617058827E-10   -9.681736734659323E-9    -1.0165516963333348E-8   -1.3136033458705125E-9
4.35E-5                   3.585367266394532E-9     4.788251685511468E-9     9.737647034425645E-9     3.2413016123903533E-9    1.127249964031055E-9     -3.943811711396812E-10   -1.9051178824122735E-9   -1.2776576082070569E-9   -1.293737608755942E-8    -1.3116435849004522E-8   -1.9075034266171788E-9
4.4E-5                    5.728339235815522E-9     7.164711875850533E-9     1.1660110805170328E-8    4.221504390556162E-9     1.6309156841556596E-9    7.977165872057915E-11    -1.852210079453732E-9    -3.055957998447435E-9    -1.6259248776393288E-8   -1.606523592068822E-8    -2.516966090776894E-9
4.45E-5                   8.02317095522781E-9      9.673879490128692E-9     1.3449414023423955E-8    5.1930593759270205E-9    2.1496877263424558E-9    6.343400252814626E-10    -1.7088565340906861E-9   -5.0266944425990135E-9   -1.9530659451378747E-8   -1.8898790504649136E-8   -3.1211610182284624E-9
4.4999999999999996E-5     1.0403827257075697E-8    1.2238605616140072E-8    1.5017489093532017E-8    6.118121950068849E-9     2.6653617825605964E-9    1.2626641161558808E-9    -1.461079964092305E-9    -7.143557477341229E-9    -2.2618122159624716E-8   -2.1491248538988703E-8   -3.6956723028840866E-9
4.5499999999999995E-5     1.2791264074200893E-8    1.477091466369308E-8     1.6269958723534E-8       6.956243969276334E-9     3.1566538338630784E-9    1.9526075645830118E-9    -1.0971577359403649E-9   -9.34594900353091E-9     -2.5375482832311616E-8   -2.3706898709852778E-8   -4.2132271885844285E-9
4.6E-5                    1.5095767043255005E-8    1.7173571010857253E-8    1.711042456325117E-8     7.665321184656176E-9     3.599653115838673E-9     2.6851176432004848E-9    -6.1002653209913E-10     -1.156020679745883E-8    -2.764925215201842E-8    -2.540434666520226E-8    -4.645107416478188E-9
4.65E-5                   1.7218356543953097E-8    1.9340593723623334E-8    1.744725607192133E-8     8.201750693068696E-9     3.968508026538868E-9     3.435181932547105E-9     8.267948924856981E-13    -1.3701782916115494E-8   -2.928384027929414E-8    -2.6442978327536735E-8   -4.962749432805941E-9
4.7E-5                    1.9052029390026376E-8    2.1158501836117297E-8    1.7199241713724796E-8    8.520901964695456E-9     4.2366392602105886E-9    4.174098213163506E-9     7.292085946137376E-10    -1.5677391697782742E-8   -3.0126864681350377E-8   -2.669061459534385E-8    -5.13918429220177E-9
4.7499999999999996E-5     2.0484136623465635E-8    2.2509234431364378E-8    1.629918462522548E-8     8.579786953029508E-9     4.3785830988104044E-9    4.87074459235489E-9      1.5635734688854704E-9    -1.7386737566775226E-8   -3.003560850211141E-8    -2.6030276756330185E-8   -5.150155912492405E-9
4.8E-5                    2.1400499704864347E-8    2.3274323233921513E-8    1.4697223069854163E-8    8.341342247237067E-9     4.371869574822021E-9     5.490971990522461E-9     2.4881657430213563E-9    -1.872458673485356E-8    -2.8884669892084258E-8   -2.4365853648175576E-8   -4.97511420763134E-9
4.85E-5                   2.1691148332138182E-8    2.3339995084260493E-8    1.236462410277302E-8     7.777676742292184E-9     4.198275493590469E-9     5.996797048344363E-9     3.4825354623497197E-9    -1.958432018422323E-8    -2.6573518257211215E-8   -2.162778157258913E-8    -4.598578114312566E-9