% Model:              Untitled.mph
% Version:            COMSOL 6.0.0.405
% Date:               Jul 17 2025, 04:44
% Dimension:          1
% Nodes:              401
% Expressions:        11
% Description:        Point graph
% Time (s)                Displacement field, Y component Displacement field, Y component Displacement field, Y component Displacement field, Y component Displacement field, Y component Displacement field, Y component Displacement field, Y component Displacement field, Y component Displacement field, Y component Displacement field, Y component Displacement field, Y component
0                         1.1578162629686455E-36   3.845231575713352E-36    6.98912782663878E-35     2.1168583970014994E-34   1.5868819560020658E-34   1.9153921094043647E-31   2.6331859359211213E-32   6.640728206210176E-31    9.199953097015989E-31    4.873808282784065E-33    2.4891852835938847E-32
5.0E-7                    3.761524337651671E-29    4.822337412737153E-28    3.76873219024957E-27     1.3131883066906305E-26   -3.5808555940201407E-25  -5.140799757121376E-23   3.683113413397998E-23    -8.48348346193799E-23    7.6003543199364615E-22   4.6502021478036155E-23   -5.80048621786701E-24
1.0E-6                    -2.7763952587232015E-27  -1.2755206701024478E-26  -1.781226545437759E-25   -6.726564825914694E-25   9.961762538599705E-25    1.3235539133124597E-22   -2.49161334049975E-22    -4.1066923031832117E-22  -1.010013741798199E-20   -9.11803001305184E-22    -1.414720391898111E-22
1.5E-6                    1.4028001457965623E-26   5.043446461554979E-26    8.006476489268464E-25    2.909554219973219E-24    1.861430003877493E-23    1.3577715197402565E-21   -7.606122821062643E-22   6.283810813483437E-22    1.9293975747481376E-20   3.690078907996298E-21    2.1150877805628658E-22
2.0E-6                    -9.497575259150223E-27   2.31030029919174E-26     -1.7679353659240272E-25  1.899948746911573E-24    -1.035831393335057E-22   -7.286924471702991E-21   2.449077548965687E-21    -1.5055265076769323E-21  1.409667393395261E-20    4.323523923799216E-22    2.1134660452629896E-21
2.4999999999999998E-6     -1.0268080397759312E-25  -4.420527363315654E-25   -6.073561446064099E-24   -2.8716477332847496E-23  3.5596719897642346E-23   -2.9704769707537242E-21  2.0364806510515066E-20   4.83905741391835E-20     5.1529755209671753E-20   -3.2010663945984846E-20  -4.4908505368897675E-21
3.0E-6                    7.635075313547233E-26    -3.094512044749606E-25   5.617861263407402E-25    -3.631676025114235E-23   6.07154565061395E-22     2.916700372939421E-20    -3.48755660079293E-20    -7.998060222665052E-20   -2.3363169101272816E-20  1.858246082964382E-20    -1.3632594109373473E-20
3.5E-6                    1.0130283704585854E-24   4.269426629929548E-24    5.792197461756266E-23    3.2469749257955727E-22   -3.4268384977455063E-22  1.3343429053876433E-19   -1.794789941670164E-19   -3.078030383436408E-19   -1.0031444785280285E-18  1.666447572957363E-19    4.3475119180836784E-20
4.0E-6                    -7.850328754378714E-25   2.6002776747875352E-24   -8.928029336500737E-24   3.7581825196803463E-22   -2.2154396743432986E-21  -1.0809156284219798E-19  2.606112347823267E-19    4.2471400661192496E-19   -1.7068270100987156E-19  -3.7268489727989585E-20  6.263561703616612E-20
4.5E-6                    -7.882213427904073E-24   -3.0828963029611314E-23  -4.264471667973201E-22   -2.6890177688760232E-21  3.577244751395985E-22    -1.3673512255511175E-18  1.0092070847195234E-18   1.712945449183614E-18    5.84467811419057E-18     -6.444000151554656E-19   -1.80817834537215E-19
4.9999999999999996E-6     5.56892273081675E-24     -2.2543654278018387E-23  1.9073381675254004E-23   -3.5045632054948675E-21  4.357042178286408E-21    2.1874789155666893E-19   -9.446868892972399E-19   -3.6523087162154418E-19  5.702214686279033E-18    -4.87629516761113E-19    -3.4743763906416365E-19
5.5E-6                    4.9736247110425854E-23   1.7072475422431407E-22   2.4661909351576605E-21   1.6630122530845156E-20   -2.5151979955215224E-21  8.051562047700246E-18    -3.9959272024278285E-18  -8.727390462590824E-18   -1.7609978427462197E-17  1.4616311680534783E-18   8.270274726575893E-20
6.0E-6                    -2.407125627055115E-23   1.8434255653749585E-22   6.70194193498308E-22     2.9722029366336976E-20   1.3115907861125687E-20   2.2599647661534483E-18   3.4304695363359847E-19   -7.13114423347629E-18    -4.3188043238810713E-17  4.616934346531616E-18    1.5658338262996412E-18
6.5E-6                    -2.6738984466730764E-22  -7.246521877559632E-22   -1.1293980199603936E-20  -7.625340910314383E-20   7.649283555429618E-20    -3.360736885058817E-17   8.780799256826165E-18    3.310769301996033E-17    5.603696079830535E-18    3.958769985360985E-18    3.1110318078512837E-18
7.0E-6                    5.37797052869614E-23     -1.1354186936146553E-21  -7.550264831691694E-21   -2.053976333634874E-19   -7.426875887016303E-20   -2.6767056544897298E-17  1.3212123443821692E-17   6.121353680080755E-17    1.8128407488364126E-16   -1.3211177952946E-17     -3.3695997514096204E-18
7.499999999999999E-6      1.2660882084190839E-21   2.356443148348934E-21    4.110864748604641E-20    2.3308679554689773E-19   -5.391580126894456E-19   1.0218486626584733E-16   1.5016691943221362E-17   -6.054600313151998E-17   2.714846425215515E-16    -4.2298656686968544E-17  -1.7021335124770108E-17
8.0E-6                    1.7050741720194354E-22   5.448472972258372E-21    4.876690350548874E-20    1.1517405267645043E-18   4.276532352148796E-20    1.6084287143871938E-16   -5.072926692180686E-17   -2.4673517700861166E-16  -2.673447518114478E-16   -1.0305023368072759E-17  2.5108224889377376E-18
8.5E-6                    -5.28153599475409E-21    -4.867387298549986E-21   -1.0389616193256722E-19  -4.249364446860002E-20   2.873285211553766E-18    -1.7327234925813196E-16  -2.1292398946927725E-16  -1.0208376526658632E-17  -1.26438472187309E-15    1.6400600220848316E-16   6.401038405015263E-17
9.0E-6                    -2.4802187354660048E-21  -1.7592663485090832E-20  -1.7837543776902685E-19  -4.766625138849567E-18   4.4944113938019E-18      -5.989698131950345E-16   -2.825642184941722E-17   8.061660597247126E-16    -4.962821570049647E-16   3.180560482062947E-16    3.352944916236515E-17
9.499999999999999E-6      2.06617383791232E-20     1.0738612735135796E-20   2.317737584191335E-19    -3.8277462716001504E-18  -5.784208079600758E-19   -1.1412771477478227E-16  9.014048025087654E-16    1.0493955571207842E-15   3.812369093845322E-15    -5.833153336795466E-18   -1.4310277379284463E-16
9.999999999999999E-6      1.9842381026932795E-20   5.517723121384934E-20    5.722262001917659E-19    1.5582788086910288E-17   -9.518160387005947E-18   1.4870349159772621E-15   1.0899188687521755E-15   -5.776991607043719E-16   6.893466001661226E-15    -8.289990246879436E-16   -6.862881917092496E-17
1.05E-5                   -6.801584885751042E-20   -7.999004480376245E-21   -1.185860438501747E-19   3.1621164375559576E-17   -6.321852959159342E-19   2.1930005306098725E-15   -1.5818431230840893E-15  -1.8165149012418528E-15  -3.471655261725567E-16   -7.532901181577358E-16   5.997104679280368E-16
1.1E-5                    -1.0566198906119743E-19  -7.621647271246235E-20   4.8645564203598734E-20   -1.7085070330557588E-17  8.991323806075933E-17    -9.192924515633191E-16   -3.6848378026621876E-15  3.220011815173561E-15    -1.3955783220123449E-14  2.1553655694961026E-15   1.0312041614890545E-15
1.15E-5                   2.098389052395936E-19    2.968700706532079E-19    3.7997037180307115E-18   -1.0807013998587664E-16  3.37703293568829E-16     -6.648727279229405E-15   3.4179881074021218E-15   1.4975732604368044E-14   -6.761808642478027E-15   6.725415217213424E-15    8.225126822608233E-17
1.2E-5                    5.69575259658641E-19     8.156512326330445E-19    4.6560438635551024E-18   -1.4353042111826696E-17  6.001117216810518E-16    -5.01088696200498E-15    1.914304060013862E-14    2.4177180520068205E-14   4.420025685360053E-14    7.001197681748341E-15    -3.057344880055914E-16
1.2499999999999999E-5     -2.4543991732308017E-19  -9.732671427251475E-20   -4.319960384818118E-18   4.308267602208346E-16    5.231205074479065E-16    1.4296762401135873E-14   2.858906049587933E-14    3.3930645546295294E-14   1.1040779611428128E-13   2.6938444841965674E-16   5.316217986588658E-15
1.3E-5                    -1.956708247796047E-18   -1.437411768960099E-18   1.014966447613298E-17    7.761521285305689E-16    8.672718517596512E-16    3.6812474949436887E-14   3.1443868500223277E-14   8.316215001163773E-14    1.1514755429855307E-13   1.0386514112524194E-15   1.8836421895622578E-14
1.35E-5                   -2.887407847316074E-19   4.2695279209707024E-18   1.0717334856665651E-16   2.512948400414281E-16    5.1198921513354674E-15   2.1397194864561695E-14   7.372194390484623E-14    2.1642336934562593E-13   3.187389166931595E-14    3.7367013270118555E-14   3.356771747054072E-14
1.4E-5                    7.286983043024305E-18    2.044220835218652E-17    2.2881105697141667E-16   -3.9787126631666473E-16  1.7014557966105823E-14   -3.354187062779848E-14   2.3107376765686163E-13   4.4628365536848965E-13   8.773991931367352E-15    1.1362622870897609E-13   4.877061848865183E-14
1.45E-5                   1.011884204095246E-17    2.757527841442506E-17    1.7600981009463992E-16   2.152187027778024E-15    3.478822804833643E-14    -2.5802004172319963E-14  5.658797365370556E-13    8.396349341271876E-13    3.4030429793720364E-13   1.7860422420338734E-13   9.677707207267824E-14
1.4999999999999999E-5     -7.177508821960533E-18   3.681837410012718E-18    7.193855766630918E-17    1.0751759244391292E-14   5.6038641675467084E-14   1.5951275866574664E-13   1.1308694228090066E-12   1.6564927625631902E-12   1.1672774423216895E-12   1.7908124661154405E-13   2.4229770096141E-13
1.55E-5                   -2.5613871213104933E-17  4.59521759864021E-19     8.420306830690122E-16    2.326482494966414E-14    1.0140034713218946E-13   4.56017597178515E-13     2.039234807857202E-12    3.246424924056833E-12    2.1336508681068253E-12   2.0568296125879114E-13   5.410908539746774E-13
1.6E-5                    1.8057324853425563E-17   1.5854917810751562E-16   3.4046587528447703E-15   3.5924757782276506E-14   2.310876277788718E-13    6.54970631073239E-13     3.5727693535511166E-12   5.764530035802773E-12    2.578925919444794E-12    5.650864841485462E-13    1.0274526812356574E-12
1.6499999999999998E-5     1.403479820035869E-16    5.286237025095136E-16    6.895462653163506E-15    5.762537521270851E-14    5.200982656890101E-13    7.823909551846239E-13    6.286796232159368E-12    9.32426549377397E-12     2.511727207669629E-12    1.556028508564469E-12    1.7984493976848208E-12
1.7E-5                    2.1364221167060718E-16   8.835477029516473E-16    9.503846637443845E-15    1.2220097624149895E-13   1.0193402793284325E-12   1.3106848774324674E-12   1.0985223969079875E-11   1.4721521091479084E-11   3.4722604859105073E-12   3.0202468733463323E-12   3.123109994658003E-12
1.75E-5                   1.126921129412747E-16    1.0241487887302884E-15   1.4225496921561234E-14   2.8317965810955706E-13   1.7791841956187352E-12   2.76807836663284E-12     1.8414821631616025E-11   2.3590557352817193E-11   7.793789836111347E-12    4.2476474207939E-12      5.44177812341043E-12
1.8E-5                    9.865758331313368E-17    1.6638643607176983E-15   3.3766585754838837E-14   5.938686159093289E-13    2.94399403769123E-12     5.257756050680782E-12    2.8811623487806093E-11   3.697395449755489E-11    1.6226856470351265E-11   4.857449688854728E-12    9.29913583604496E-12
1.85E-5                   8.87540737169344E-16     4.916860676252581E-15    8.53013139662812E-14     1.0935663563339789E-12   4.827669242237927E-12    8.714608911832135E-12    4.1729297615423884E-11   5.344285040442465E-11    2.6359763446089488E-11   6.242863352830034E-12    1.537199162838271E-11
1.8999999999999998E-5     2.959741985446457E-15    1.3245644559349793E-14   1.794126410944557E-13    1.8287730564152205E-12   7.90447619504197E-12     1.3537324258583925E-11   5.6326215125081994E-11   6.923796619725709E-11    3.4357555648416965E-11   1.1740610345051077E-11   2.445229218846845E-11
1.95E-5                   5.9121210566594834E-15   2.775375517001657E-14    3.2567399367207675E-13   2.9409337135529623E-12   1.2692193302603827E-11   2.0323437662923427E-11   7.168619123669995E-11    8.097278943101916E-11    3.896751815757063E-11    2.3986527618268124E-11   3.693645614699109E-11
1.9999999999999998E-5     9.530328419858096E-15    4.9488140345083814E-14   5.673278258735712E-13    4.801658361212836E-12    1.9415882991406253E-11   2.86736893557634E-11     8.662073046930533E-11    8.827947910318268E-11    4.3341814620508764E-11   4.101844282467314E-11    5.18389975796148E-11
2.05E-5                   1.6647413373406715E-14   8.693520307147309E-14    1.0181245418163239E-12   8.027544831645229E-12    2.7427765330102746E-11   3.6806657883352984E-11   9.901248262610469E-11    9.336987986184797E-11    5.1873384642522156E-11   5.573181597150586E-11    6.627795754205896E-11
2.1E-5                    3.4825676677640325E-14   1.6672676127714603E-13   1.8594853105843837E-12   1.3132016873692905E-11   3.491557864234302E-11    4.297627248001016E-11    1.0552292377668565E-10   9.74773875413896E-11     6.490624985447228E-11    6.136366316168588E-11    7.634119696472118E-11
2.1499999999999997E-5     7.416718548527996E-14    3.3689155843251194E-13   3.3018583620973025E-12   1.988757079953281E-11    3.970256885602537E-11    4.706627360153835E-11    1.0255341964508258E-10   9.742879791775612E-11    7.711722271698549E-11    5.869703710327186E-11    7.885792068184007E-11
2.2E-5                    1.442385938972648E-13    6.53786202557221E-13     5.556370917698869E-12    2.704691445316148E-11    4.0869585784781696E-11   5.0165937006857276E-11   8.819616542403493E-11    8.601043909670345E-11    8.147015526090116E-11    5.643082260965984E-11    7.255601705538568E-11
2.2499999999999998E-5     2.579525269963773E-13    1.1630347409877491E-12   8.813554803181857E-12    3.3075572786304455E-11   3.9417721815189415E-11   5.251620765596889E-11    6.332215304415489E-11    5.665730965138697E-11    7.42992484320657E-11     6.197381114418009E-11    5.7780009182133634E-11
2.3E-5                    4.4518311533208437E-13   1.908836501944245E-12    1.3148531545212563E-11   3.7477062901811975E-11   3.67256103941606E-11     5.229812741825792E-11    3.013351750695297E-11    8.572536181446524E-12    5.608216276852814E-11    7.127342662150297E-11    3.5341585528788184E-11
2.35E-5                   7.659331448839168E-13    2.9972864217149782E-12   1.8340879725341113E-11   4.118827279138913E-11    3.2272996881420305E-11   4.651037077849588E-11    -1.0804881101018095E-11  -5.295884303626237E-11   2.8030640090047738E-11   6.946677205271485E-11    5.5158973583731116E-12
2.4E-5                    1.3089027893433502E-12   4.670699494043634E-12    2.3786755514894447E-11   4.511627743495361E-11    2.3433947242596387E-11   3.2814519594531385E-11   -6.191754261660145E-11   -1.2198551313382908E-10  -1.0420311453939735E-11  4.3374590903773784E-11   -3.213411286911084E-11
2.45E-5                   2.1783820234670447E-12   7.266980641928864E-12    2.8682281904422686E-11   4.8028196407345125E-11   7.743300587923699E-12    1.0908192678176227E-11   -1.2685159356294068E-10  -1.9773242401047056E-10  -6.010267909201242E-11   -6.324472606564013E-12   -7.786247907984707E-11
2.4999999999999998E-5     3.4912784744049336E-12   1.0965027929805554E-11   3.23398063170771E-11     4.614922893396544E-11    -1.5068397065323925E-11  -1.7058979270821284E-11  -2.0761075912978004E-10  -2.848355752582702E-10   -1.193899290611467E-10   -6.552944393704851E-11   -1.3062629385560418E-10
2.55E-5                   5.385812029180192E-12    1.542721505761589E-11    3.426555996646586E-11    3.52214621995829E-11     -4.349394066084866E-11   -4.7563914499921266E-11  -3.034998371280044E-10   -3.8823119936715966E-10  -1.8476790085400797E-10  -1.1914533207530576E-10  -1.8869439850179378E-10
2.6E-5                    7.984754116561557E-12    1.9688062306283527E-11   3.3903819161312654E-11   1.3181623919758953E-11   -7.61995601482939E-11    -7.875182744862966E-11   -4.124367649614809E-10   -5.086444990664149E-10   -2.5451029784293183E-10  -1.637185248749371E-10   -2.5220076739444227E-10
2.65E-5                   1.1248166226206075E-11   2.2565925030366446E-11   3.042525520043792E-11    -1.8866342793676912E-11  -1.1325659944708938E-10  -1.1358917744803699E-10  -5.328589928563476E-10   -6.426502986827645E-10   -3.3081979013672E-10     -2.0979732086800709E-10  -3.2398988919682046E-10
2.7E-5                    1.4780771860762176E-11   2.3367979020683825E-11   2.2886277600204512E-11   -5.7833161543309666E-11  -1.5594914663749254E-10  -1.5930184019122196E-10  -6.641215911400317E-10   -7.84983408854263E-10    -4.1756958026206827E-10  -2.7328527531869996E-10  -4.054185330572966E-10
2.7499999999999998E-5     1.782527219275282E-11    2.2172006565772792E-11   1.0530087596410179E-11   -1.0076776114733296E-10  -2.0580805950727162E-10  -2.2212705885709269E-10  -8.045881031170217E-10   -9.289402278538127E-10   -5.15949956729697E-10    -3.629846479400555E-10   -4.906156346226982E-10
2.8E-5                    1.959491566460703E-11    1.921507440924632E-11    -7.205870265981655E-12   -1.466627973685153E-10   -2.6329632344218035E-10  -3.019546921484861E-10   -9.488703165059285E-10   -1.0650164859695804E-9   -6.220891202871292E-10   -4.729284858949737E-10   -5.671178153478095E-10
2.8499999999999998E-5     1.9702411254030432E-11   1.3923853366525836E-11   -3.089807674105844E-11   -1.9709702729739267E-10  -3.2654948936598646E-10  -3.921674811674498E-10   -1.0872140526563764E-9   -1.1813276614815582E-9   -7.279203254947301E-10   -5.843768266894559E-10   -6.242577536762388E-10
2.9E-5                    1.8168150610513135E-11   4.807192292699103E-12    -6.104243544564153E-11   -2.5497726936533867E-10  -3.9123274063675697E-10  -4.842961520851065E-10   -1.2083542624351652E-9   -1.2669369365251145E-9   -8.237826172050923E-10   -6.761087873318619E-10   -6.603456479061782E-10
2.95E-5                   1.4860000147129983E-11   -9.288876670559058E-12   -9.753099465731654E-11   -3.215309668850106E-10   -4.519641666237787E-10   -5.72337182266275E-10    -1.3032232582678243E-9   -1.3147684737380137E-9   -9.010443966548913E-10   -7.359470290727411E-10   -6.803129005608599E-10
2.9999999999999997E-5     8.971961110229079E-12    -2.7691752502288192E-11  -1.3928511326938631E-10  -3.935576648924677E-10   -5.038651208973825E-10   -6.53255068049827E-10    -1.365657727766108E-9    -1.3205320817349155E-9   -9.5356745466709E-10     -7.6540945432524E-10     -6.87141399885585E-10
3.05E-5                   -7.048414665595312E-13   -4.7926776919706835E-11  -1.8458724919662987E-10  -4.6347943858318925E-10  -5.425558376660888E-10   -7.247536308994785E-10   -1.3896914991539012E-9   -1.2782317520246683E-9   -9.769128536998264E-10   -7.746025680299941E-10   -6.771292053362204E-10
3.1E-5                    -1.4842581590324954E-11  -6.757719310462351E-11   -2.3180915309922437E-10  -5.224328135483671E-10   -5.631988342747102E-10   -7.831156952648631E-10   -1.3665659459448282E-9   -1.176471449167667E-9    -9.655021640970944E-10   -7.718789975695349E-10   -6.422903982849909E-10
3.15E-5                   -3.298453560726625E-11   -8.627284871785496E-11   -2.796528138884566E-10   -5.637593366977489E-10   -5.607205998074512E-10   -8.226770474888053E-10   -1.2838907382942316E-9   -9.993702973180153E-10   -9.105303057482846E-10   -7.560211803563521E-10   -5.739619316542252E-10
3.2E-5                    -5.399051224820493E-11   -1.0584341600396201E-10  -3.264582030920404E-10   -5.840862825433694E-10   -5.315796657736889E-10   -8.369921403088504E-10   -1.126590191779109E-9    -7.320110954796069E-10   -8.01687901614173E-10    -7.156149075067776E-10   -4.630103711629178E-10
3.25E-5                   -7.700036797007073E-11   -1.2850670255574556E-10  -3.6914414221354E-10     -5.816919851677299E-10   -4.747067107162275E-10   -8.204585898118762E-10   -8.787004380113392E-10   -3.661438760418877E-10   -6.318223799846249E-10   -6.344477360523044E-10   -2.996871273160757E-10
3.2999999999999996E-5     -1.0184339447552166E-10  -1.547659925013486E-10   -4.0286783571951943E-10  -5.540680673148589E-10   -3.894958527164232E-10   -7.683377568212416E-10   -5.262166617907003E-10   9.873150737003906E-11    -3.9963029924852124E-10  -4.982260353654693E-10   -7.708235801303666E-11
3.35E-5                   -1.2852175989433051E-10  -1.8263248502784274E-10  -4.2194156967728066E-10  -4.966804190720146E-10   -2.720975306693731E-10   -6.745914382316608E-10   -6.058747352058153E-11   6.592112534564555E-10    -1.0673437352775192E-10  -2.98500924044013E-10    2.0463644100104433E-10
3.4E-5                    -1.5630603565362752E-10  -2.0839512255291287E-10  -4.214108367016224E-10   -4.0361320431720363E-10  -1.1386327045249997E-10  -5.301848646199212E-10   5.194064082311952E-10    1.3116120062979501E-9    2.486298380052516E-10    -3.268667070816584E-11   5.388233604380742E-10
3.45E-5                   -1.831389782715802E-10   -2.2811369486522953E-10  -3.9811305176995845E-10  -2.6939810843500124E-10  9.551510479401336E-11    -3.2504741415917385E-10  1.2088691399336587E-9    2.0507437566369732E-9    6.74933619584873E-10     2.9821811295451046E-10   9.173805761257052E-10
3.5E-5                    -2.0576613581147452E-10  -2.389194941917707E-10   -3.5063349718910833E-10  -9.056817191677715E-11   3.6178857253423545E-10   -5.28870222703004E-11    1.9991182330341727E-9    2.8656486265778788E-9    1.183229957398343E-9     6.915795259236947E-10    1.3340746815706808E-9
3.5499999999999996E-5     -2.2077483110459725E-10  -2.395157927698424E-10   -2.7863859858864386E-10  1.3420533393684983E-10   6.815400029312387E-10    2.856972800982801E-10    2.878015835570828E-9     3.737871448806467E-9     1.7771655354096654E-9    1.1429668541405066E-9    1.7827077523132253E-9
3.6E-5                    -2.261596107642732E-10   -2.2967077166899316E-10  -1.8230839530860754E-10  4.0512779187944183E-10   1.0429170322798534E-9    6.848177213611923E-10    3.828421906686071E-9     4.643498252603636E-9     2.443667959742927E-9     1.6441519038935256E-9    2.253023820706652E-9
3.65E-5                   -2.2211272553611396E-10  -2.0914147404456105E-10  -6.189175955038638E-11   7.219397195052313E-10    1.4311264331760946E-9    1.1377018217038018E-9    4.827527596579716E-9     5.554192618451E-9        3.1512024582359267E-9    2.1812645833173984E-9    2.7283957493252106E-9
3.7E-5                    -2.097732942880249E-10   -1.7698562790302802E-10  8.29919279833399E-11     1.0830788731766023E-9    1.8339826139399443E-9    1.6395196704030658E-9    5.847709078837629E-9     6.433956594554152E-9     3.857731902879316E-9     2.7348648236913226E-9    3.1857640588090343E-9
3.75E-5                   -1.8852092856907661E-10  -1.3181801631371415E-10  2.5407716226710677E-10   1.4837604826967797E-9    2.2425626060276128E-9    2.186221101964383E-9     6.856194515203005E-9     7.235566056114159E-9     4.523177386380314E-9     3.281773743182242E-9     3.5965640874930282E-9
3.7999999999999995E-5     -1.543717466594008E-10   -7.243997188369797E-11   4.5429842258333863E-10   1.914255932724402E-9     2.6463861761867E-9       2.7704044161718442E-9    7.811883044063163E-9     7.903090974151622E-9     5.1169900698285315E-9    3.797231999836518E-9     3.929031492209057E-9
3.85E-5                   -1.0145549830678709E-10  2.192233244881264E-12    6.862084601058653E-10    2.3591482181109486E-9    3.0279044186859757E-9    3.3771470356576464E-9    8.661953720033527E-9     8.380327077022797E-9     5.615463163990613E-9     4.2565717845498325E-9    4.152821764825376E-9
3.9E-5                    -2.5531099375100306E-11  9.371498377068783E-11    9.494665150007684E-10    2.7976670011548486E-9    3.36198200765799E-9      3.982470849421831E-9     9.342520139187985E-9     8.617500760573587E-9     5.993010931036016E-9     4.63636457101345E-9      4.244054329178895E-9
3.95E-5                   7.36530586790822E-11     2.0460356443689458E-10   1.238570271489266E-9     3.2051341399398924E-9    3.620894131512274E-9     4.5551947153583056E-9    9.784409487315928E-9     8.570152722360201E-9     6.216815583571564E-9     4.9142135449493895E-9    4.186446785869233E-9
3.9999999999999996E-5     1.9311865843837937E-10   3.368734433038886E-10    1.5419930269768069E-9    3.5552521535892963E-9    3.779406156646553E-9     5.060594771681771E-9     9.920901685820827E-9     8.193259159928483E-9     6.249107367579255E-9     5.065747858419978E-9     3.966689884150191E-9
4.0499999999999995E-5     3.293364764834336E-10    4.898356372660837E-10    1.8434077541845924E-9    3.8219996463651816E-9    3.8147855238049E-9       5.463527921548386E-9     9.693040593253339E-9     7.439381114044527E-9     6.052580639463162E-9     5.059767145601232E-9     3.5682893338309696E-9
4.1E-5                    4.800551881807838E-10    6.58783518974429E-10     2.1246747071332848E-9    3.979691516968293E-9     3.7031220380198094E-9    5.730035749945244E-9     9.050440900037645E-9     6.2652183679105384E-9    5.593034940140915E-9     4.856374955312723E-9     2.9707733848256466E-9
4.15E-5                   6.438977748752414E-10    8.358980068717492E-10    2.3689475903116825E-9    4.001504204896858E-9     3.418186249121398E-9     5.827909038016964E-9     7.949305368710206E-9     4.6419990526635605E-9    4.839679522987649E-9     4.4129172758039E-9       2.1560358434983565E-9
4.2E-5                    8.186635433598432E-10    1.0127257601791264E-9    2.5617794650142302E-9    3.858848235106868E-9     2.9360115933785993E-9    5.726604155721824E-9     6.351932117108681E-9     2.5618164833689137E-9    3.7675614610761265E-9    3.6964240829888305E-9    1.115930661411099E-9
4.2499999999999996E-5     9.99985156397864E-10     1.1822061576157599E-9    2.6894630222887725E-9    3.5235614385871556E-9    2.2411721369928614E-9    5.396524455994102E-9     4.230923028145405E-9     3.680130069457669E-11    2.362765572866502E-9     2.694396565335176E-9     -1.4529326182680128E-10
4.2999999999999995E-5     1.1809332278792161E-9    1.3386817697869274E-9    2.7361916536680426E-9    2.9719476791201254E-9    1.328573928751959E-9     4.8085783510639865E-9    1.5765495211078778E-9    -2.905311451548361E-9    6.260694782460721E-10    1.4158572938162404E-9    -1.6127746712924525E-9
4.35E-5                   1.3520890248281951E-9    1.4761347632620658E-9    2.682833319147706E-9     2.1875759773613905E-9    2.0028683528647837E-10   3.9357266700461855E-9    -1.5983210942068346E-9   -6.223361832550887E-9    -1.427427316610547E-9    -1.1743103352443757E-10  -3.2611181440712055E-9
4.4E-5                    1.5016437644967933E-9    1.5863502667400824E-9    2.5089057694976538E-9    1.1612353108798733E-9    -1.1368667205567443E-9   2.7568407195250665E-9    -5.259175356610065E-9    -9.859710246567672E-9    -3.769504481227792E-9    -1.881232217522828E-9    -5.051082663043478E-9
4.45E-5                   1.615665445462463E-9     1.6585373908994401E-9    2.196659383800765E-9     -1.0998332277095827E-10  -2.668513292998827E-9    1.2608452342220302E-9    -9.35295869542562E-9     -1.373384676739664E-8    -6.3569506220491025E-9   -3.851492038069024E-9    -6.927848396709508E-9
4.4999999999999996E-5     1.6788486657896585E-9    1.6804849045217351E-9    1.7343575806104557E-9    -1.6210462357468181E-9   -4.367125775532774E-9    -5.509547479789899E-10   -1.3806355118615326E-8   -1.7737545351076238E-8   -9.127945314655963E-9    -5.997635811223047E-9    -8.824708711362922E-9
4.5499999999999995E-5     1.6757896814756227E-9    1.6401328190691808E-9    1.116633525464746E-9     -3.353970322439206E-9    -6.189569377836959E-9    -2.663981021235801E-9    -1.8518309950160168E-8   -2.1735387591997762E-8   -1.2001280335259708E-8   -8.272920483544876E-9    -1.0668987865810192E-8
4.6E-5                    1.5925736550266791E-9    1.5265509394967668E-9    3.4263148687194926E-10   -5.272621831917663E-9    -8.079888988599075E-9    -5.048883469946166E-9    -2.3354286439379485E-8   -2.557075582794186E-8    -1.4879914219239542E-8   -1.0609911738852756E-8   -1.238469184015885E-8
4.65E-5                   1.4182887897600542E-9    1.330273021999927E-9     -5.851536215013959E-10   -7.321452680583122E-9    -9.973636315834615E-9    -7.658921966245668E-9    -2.8149514251040668E-8   -2.9074554209711657E-8   -1.7655964365178047E-8   -1.2923804205030748E-8   -1.3891876701617416E-8
4.7E-5                    1.1458723182773177E-9    1.0435962505000638E-9    -1.659131935410241E-9    -9.429177883443322E-9    -1.1799342414992508E-8   -1.0428443204668132E-8   -3.271955622574662E-8    -3.207367703646666E-8    -2.021441293135325E-8    -1.5119808928456065E-8   -1.510732355237545E-8
4.7499999999999996E-5     7.717909419736943E-10    6.6135773870122E-10      -2.862768817217282E-9    -1.1514437571035657E-8   -1.3476978295909786E-8   -1.3274847827333776E-8   -3.68699189006089E-8     -3.4397441631096104E-8   -2.2435790586614387E-8   -1.7099151507624835E-8   -1.594846870960362E-8
4.8E-5                    2.948536828948599E-10    1.8219082623485448E-10   -4.1676827853768566E-9   -1.348950473546444E-8    -1.491681108946333E-8    -1.610345165438756E-8    -4.039955361521543E-8    -3.5881803194598524E-8   -2.4198927332570106E-8   -1.876177144972462E-8    -1.6337857876748102E-8
4.85E-5                   -2.845866936746283E-10   -3.9026513985087443E-10  -5.534006093647289E-9    -1.5260629776192804E-8   -1.602164726694452E-8    -1.8811851235314705E-8   -4.3101126370592866E-8   -3.637316262932035E-8    -2.5383576536982226E-8   -2.0007861312524835E-8   -1.6206128499349266E-8