% Model:              Untitled.mph
% Version:            COMSOL 6.0.0.405
% Date:               Jul 15 2025, 17:43
% Dimension:          1
% Nodes:              401
% Expressions:        11
% Description:        Point graph
% Time (s)                Displacement field, Y component Displacement field, Y component Displacement field, Y component Displacement field, Y component Displacement field, Y component Displacement field, Y component Displacement field, Y component Displacement field, Y component Displacement field, Y component Displacement field, Y component Displacement field, Y component
0                         9.980584907102944E-32    2.784888192821709E-31    1.228252217373702E-30    -5.108806889010544E-31   -2.877633700791872E-31   -3.368824981623407E-30   -7.59542954560875E-30    -3.560791899643566E-30   -1.975641142028702E-30   -1.6659252125565904E-30  -2.72614195180625E-31
5.0E-7                    2.306141683166949E-23    2.3252960936571062E-23   -1.436570812290672E-22   -2.85955020530765E-23    -5.35567746849104E-23    3.525002269034631E-22    1.688386365461814E-21    -5.66223309270908E-23    -3.0207398961073305E-22  -3.406985249177577E-22   -1.1303008920041633E-22
1.0E-6                    -3.6439665748083662E-22  -6.662300059736814E-22   -2.729964980354149E-22   5.176129707680284E-22    4.151358808575192E-22    2.712103038089893E-21    1.29674076522808E-21     6.828883613307493E-21    4.3646974032073224E-21   4.975456363285632E-21    9.05256895889999E-22
1.5E-6                    1.3801362052753098E-21   3.1159790520733534E-21   3.170498244026667E-21    -6.585786120449775E-22   -1.4897477310575637E-21  -2.912718331399193E-20   -5.403356326376698E-20   -3.7735840659752776E-20  -1.8773138353208832E-20  -1.8039221640778212E-20  -2.376171591528595E-21
2.0E-6                    -1.3139485596456825E-21  -5.3082262123171435E-21  -1.168564266523747E-20   -1.0901394156212082E-21  7.263804730191149E-21    1.0993884917121235E-19   2.2652094216590974E-19   8.637963181522129E-20    4.596069530669489E-20    3.451705775135283E-20    5.6314677190863616E-21
2.4999999999999998E-6     -3.178589530878485E-21   -2.773322351124993E-21   2.305298934361314E-20    -1.7779021763333553E-21  -1.8569013614254134E-20  -1.76533841538045E-19    -3.3017119429693913E-19  -9.158649678144462E-20   -5.78665839360154E-20    -4.901286168932058E-20   -9.480757605642249E-21
3.0E-6                    2.4554729991381398E-21   1.5605309551687882E-20   -2.4540612048404406E-20  -7.223733248496772E-21   5.4337623917178976E-21   -2.1118690179370572E-19  -1.2581875563343686E-19  -7.690584671547219E-20   -8.335169321164174E-20   -6.601280087427283E-20   -2.844557806218531E-20
3.5E-6                    1.384086563692222E-20    9.149441991515401E-21    -1.5970067510385082E-20  4.996968116335451E-20    5.992358525287178E-20    1.3419956171136733E-18   1.1231112586805668E-18   7.57522341186227E-19     4.503574985507594E-19    5.498846900662235E-19    7.604580469806417E-20
4.0E-6                    2.1097371800822842E-20   -1.468252091849377E-20   1.850330643673366E-19    1.9407909926406603E-19   -2.036796984806684E-19   -9.9378768967397E-19     -3.29366677270245E-18    -1.484775370346216E-18   -2.805318297430007E-19   -1.2643408150935737E-19  1.6637841851848421E-19
4.5E-6                    -9.378605603002007E-20   -1.4506355113300732E-19  -2.758962108581452E-19   -4.452656069857171E-19   2.7004868274461957E-19   -5.694776058304675E-18   3.521651810215806E-18    -2.515823069254006E-18   -1.5306744337234383E-18  -2.630573756750371E-18   -1.511353146116224E-19
4.9999999999999996E-6     -1.9467366594086821E-19  -7.671620533718834E-21   -5.344652463301661E-19   -1.9171938323098128E-18  1.0325450657952418E-18   5.956344966306543E-18    1.7247768087656494E-17   7.026643027320888E-18    -6.626077808343567E-19   -1.2242517533950882E-18  -1.168384186822565E-18
5.5E-6                    4.0680033415636156E-19   8.403812481190088E-19    9.732708596068127E-19    1.636009633501399E-18    -2.7173421007812374E-18  1.9446795096263678E-17   -3.453984109483341E-17   6.0324909561935284E-18   4.050648525957856E-19    9.875331466245382E-18    -8.635757381355002E-19
6.0E-6                    1.2466613040267094E-18   4.3072406915448056E-19   2.363666086828719E-18    1.2309383115435733E-17   -3.711451567040342E-18   -2.953311496007003E-17   -7.847897296667304E-17   -2.809309754365916E-17   7.186896050806847E-18    1.7725510332658464E-17   5.3336777913299035E-18
6.5E-6                    -9.905085411798361E-19   -3.250293697818018E-18   -1.1219824661541795E-18  1.9978332218597994E-18   9.985584152775617E-18    -9.903824850023428E-17   9.595202020612207E-17    -3.8578899781354804E-17  1.1966920075033419E-17   -2.5588133351071777E-17  1.0308931680798835E-17
7.0E-6                    -6.2236292942478034E-18  -3.827429460584832E-18   -9.67565169427408E-18    -5.656107786807216E-17   4.165697962700013E-18    2.480555380326519E-17    2.9990610420012796E-16   4.848570875363779E-17    -5.822456195468487E-17   -1.1261758999919044E-16  -1.2053634010682723E-17
7.499999999999999E-6      -4.654621529773622E-19   9.73703311980807E-18     -3.7376914932599825E-18  -6.946835187367834E-17   -2.5651674732392862E-17  2.233533519575945E-16    -4.8570474773264853E-17  7.647079763262501E-17    -2.2838152119942075E-16  -2.6063166266000665E-17  -5.601924362566519E-17
8.0E-6                    2.4311444843746746E-17   2.285951031464471E-17    2.6526442283775324E-17   1.4591090470318842E-16   3.294478904434198E-17    -2.599345845482922E-16   -1.1031954938360622E-15  -3.1393716809336495E-16  -2.351214232144408E-16   3.7919789244614823E-16   -2.4414370411629347E-17
8.5E-6                    2.119422225869873E-17    -1.3087239597848993E-17  4.129656018202895E-17    4.106018776402755E-16    -5.144255065293879E-18   -1.3923402718574829E-15  -1.565501465835178E-15   -8.491715975734343E-16   2.006352132317834E-16    4.447015302646153E-16    1.6404857797975733E-16
9.0E-6                    -6.413457234192458E-17   -8.199900983649191E-17   1.8666161784178728E-17   -1.3305707206930492E-16  -5.807968116457368E-16   -1.4884156604246395E-15  1.3607356331252637E-15   -3.4971159065064634E-16  2.5120428168769054E-16   -8.9820736304395E-16     3.0040223292190776E-16
9.499999999999999E-6      -1.13701893263235E-16    -1.2670020601986004E-17  -5.610094802988706E-17   -1.8147294150799798E-15  -5.77416189128217E-16    -9.789131678491473E-16   5.800345945333343E-15    5.642115393516141E-16    -2.2962484049948524E-15  -2.6259192488037287E-15  -1.0380275506371384E-16
9.999999999999999E-6      1.0944930975988847E-16   2.766878841974158E-16    -1.5041401210084095E-16  -2.189021840439693E-15   1.5753727133956018E-15   -4.6773926679704246E-15  -1.3013950237807047E-15  -2.437155963813566E-15   -7.897823828310145E-15   -5.622225253078656E-16   -1.0760517452247505E-15
1.05E-5                   4.407517716861221E-16    3.8332105565954875E-16   3.601887334870148E-16    1.9998549522682838E-15   4.674651066985681E-16    -1.450907254213874E-14   -2.3496670936502087E-14  -1.0550028726390333E-14  -1.1540505426574101E-14  6.490022985668306E-15    -1.3225510690557721E-15
1.1E-5                    1.7102968218446656E-16   -1.6089128157444715E-16  2.15560998472481E-15     5.581330865342464E-15    -1.2776880465639041E-14  -2.8777780990869825E-14  -2.6045885595586856E-14  -1.4777987774626482E-14  -7.879691169485035E-15   7.721047966430232E-15    1.0369904382304736E-15
1.15E-5                   -7.646565273516937E-16   -5.911577858192634E-16   3.569125297256875E-15    -7.881086421590287E-15   -2.6782682370099503E-14  -5.871393567103278E-14   1.1486247884350966E-14   -1.0557517719591653E-14  -5.409131333295606E-15   -1.1410475586246586E-14  5.253410486162024E-15
1.2E-5                    -7.064266867328091E-16   1.119117797396231E-15    2.5379404074221243E-15   -4.4226158736020643E-14  -1.9226030029703752E-14  -1.1912609780086112E-13  4.795179025052714E-15    -1.8517456092372406E-14  -2.8420776984461033E-14  -3.6694462326626675E-14  4.918496041523597E-15
1.2499999999999999E-5     1.8995415459944552E-15   5.5506123931861296E-15   5.801061648822573E-15    -7.577798915439173E-14   -2.9428757756460877E-14  -1.9210833156117208E-13  -1.3501479457717845E-13  -5.81709941651875E-14    -8.848342650482132E-14   -1.7345818372363532E-14  -7.797932123293635E-15
1.3E-5                    5.169352230873467E-15    9.880175288964872E-15    3.0291428009794766E-14   -7.931758621013321E-14   -1.6354722687569824E-13  -2.9634546113474365E-13  -2.920317549872956E-13   -9.996181553543206E-14   -1.4782953452918527E-13  5.884645527877588E-14    -2.6506542075959218E-14
1.35E-5                   5.2592993821110575E-15   1.2637442182663532E-14   8.512449907443972E-14    -1.2982762862864811E-13  -4.4833282314043153E-13  -6.465361517530411E-13   -3.419728928490008E-13   -1.2869658519251344E-13  -1.311743287403836E-13   8.270687892979462E-14    -2.060557432773676E-14
1.4E-5                    3.9013504023755096E-15   2.361452165977373E-14    1.6047206750836805E-13   -4.203448434189221E-13   -8.104448368254725E-13   -1.5090299034839272E-12  -6.501483234801557E-13   -3.0819375836065475E-13  -2.2110129889464237E-14  -7.709507179938036E-14   3.2413452076280004E-14
1.45E-5                   1.1865187175949754E-14   6.52798478719263E-14     2.676455029517188E-13    -1.1098631870083638E-12  -1.390951823772182E-12   -2.669625702655847E-12   -1.8107180272048005E-12  -9.332026091919878E-13   1.113561940335718E-14    -3.2821579831318263E-13  8.039055436885927E-14
1.4999999999999999E-5     4.003678117100349E-14    1.57300937611276E-13     5.19480800316959E-13     -2.1573103247749245E-12  -2.704437574027898E-12   -3.463216374747499E-12   -3.616323888053044E-12   -2.0208082858860878E-12  -3.5809997858854264E-13  -3.7744174319842906E-13  5.153014542847285E-15
1.55E-5                   8.867336132358707E-14    3.0878521176688493E-13   1.1402286206260942E-12   -3.491704944666492E-12   -5.239338744008768E-12   -4.105151768614401E-12   -5.2424600355500524E-12  -3.143330344462686E-12   -1.2923106474979591E-12  -2.0837051367254245E-13  -2.098668606036779E-13
1.6E-5                    1.552216367441073E-13    5.562781692813347E-13    2.312806891516496E-12    -5.5781592160594455E-12  -9.301330948905649E-12   -6.8589145160940045E-12  -7.280654407069964E-12   -4.231825545981691E-12   -2.4457430513621687E-12  -3.4704520031155803E-13  -3.3677894931615277E-13
1.6499999999999998E-5     2.627516620796063E-13    1.0198227721481567E-12   4.058092745761149E-12    -9.706523203893307E-12   -1.5676701765101415E-11  -1.466016825848962E-11   -1.2488074634390955E-11  -6.6799881231173606E-12  -3.2926421138522404E-12  -1.2016906305345242E-12  -1.2429997381480742E-13
1.7E-5                    4.822055157742319E-13    1.8881733571581475E-12   6.528866304354491E-12    -1.710866443759316E-11   -2.5543175352574428E-11  -2.7895490530220042E-11  -2.2915103892271094E-11  -1.2844537619849291E-11  -4.269531456535982E-12   -2.235373049995264E-12   2.1711529037329712E-13
1.75E-5                   9.151165606795197E-13    3.3531116084298624E-12   1.0492662832566811E-11   -2.7283844810053758E-11  -3.8442646618790637E-11  -4.3310283874716814E-11  -3.685339425628165E-11   -2.35881502126635E-11    -7.426102663868867E-12   -2.598452857299688E-12   -8.619721775469992E-15
1.8E-5                    1.643206206416312E-12    5.652735977015067E-12    1.693995118768417E-11    -3.756102571592701E-11   -5.1096872825348505E-11  -5.6863040346522084E-11  -5.0274692158187E-11     -3.6645915106301754E-11  -1.503683672979594E-11   -2.9239189247569403E-12  -1.182302786439781E-12
1.85E-5                   2.7263247624755388E-12   9.180242121250049E-12    2.5584790487315802E-11   -4.5106580079199154E-11  -6.00569813114945E-11    -6.6986220525624E-11     -6.084034741528418E-11   -4.8482855831252956E-11  -2.7002377576259205E-11  -5.5833096506100814E-12  -2.7177996044296565E-12
1.8999999999999998E-5     4.333815075263213E-12    1.42870582169877E-11     3.416969096310257E-11    -4.931216616832503E-11   -6.489681467437953E-11   -7.408956330693406E-11   -6.873546696787844E-11   -5.7801166486855074E-11  -4.0205533696961604E-11  -1.22220107665213E-11    -3.842882561529297E-12
1.95E-5                   6.904221373439967E-12    2.073543570958011E-11    4.0185694642395057E-11   -5.139435304869019E-11   -6.649485153442574E-11   -7.754988736542009E-11   -7.404905406680599E-11   -6.599648427086222E-11   -5.121099695106916E-11   -2.162038935661804E-11   -5.1926099103206E-12
1.9999999999999998E-5     1.1010437411673562E-11   2.7483505739263255E-11   4.3023732012068E-11      -5.165559788792972E-11   -6.297299814677436E-11   -7.492411802901257E-11   -7.559061406515718E-11   -7.364028322707721E-11   -5.917562910887641E-11   -3.12057953564763E-11    -8.867751706664417E-12
2.05E-5                   1.679689316383919E-11    3.319814134693024E-11    4.335049117562298E-11    -4.829026706826278E-11   -5.0972615814708535E-11  -6.45150325344258E-11    -7.228830225099733E-11   -7.776910393428634E-11   -6.510027723439067E-11   -4.0312838511614296E-11  -1.6211284686458307E-11
2.1E-5                    2.345227554052822E-11    3.6724441850550276E-11   4.080056735751409E-11    -3.941790532647834E-11   -3.1319065665721385E-11  -4.723190812962032E-11   -6.337014446961669E-11   -7.39345208227304E-11    -6.859016505190283E-11   -5.020659057114894E-11   -2.5967962238872553E-11
2.1499999999999997E-5     2.940524741115155E-11    3.6910546043032375E-11   3.410556715542818E-11    -2.5312495171336803E-11  -9.398791344551985E-12   -2.4726504526334267E-11  -4.66161369588898E-11    -6.036875924516709E-11   -6.703022865969685E-11   -6.041570030354095E-11   -3.557680930893109E-11
2.2E-5                    3.3248392521490845E-11   3.2772328008377504E-11   2.3586908213097586E-11   -7.600084929554427E-12   1.204705151013429E-11    3.643753342845411E-12    -1.8740112469197072E-11  -3.8711482806724466E-11  -5.848697181642999E-11   -6.676316775882096E-11   -4.410335284891579E-11
2.2499999999999998E-5     3.454397584483091E-11    2.4739324435320426E-11   1.1310977202446635E-11   1.3533920563506404E-11   3.7651010429086865E-11   4.081956511912248E-11    2.1216428654261557E-11   -1.0660475024127322E-11  -4.381593058556177E-11   -6.458625526142008E-11   -5.259344523408817E-11
2.3E-5                    3.374456092719649E-11    1.5190152118308462E-11   -2.2620515788856585E-12  4.062917400145454E-11    7.479288864746325E-11    8.930936775346215E-11    7.046577685725978E-11    2.4604043478681516E-11   -2.4448260931887717E-11  -5.343588973999037E-11   -6.097469764002664E-11
2.35E-5                   3.134457057400666E-11    6.337699019768943E-12    -2.023200350827997E-11   7.732128640427548E-11    1.2624588267010663E-10   1.4958106609846494E-10   1.2586949863128448E-10   6.904562373853911E-11    1.1408003345754609E-12   -3.737935844860804E-11   -6.580800311430281E-11
2.4E-5                    2.702139881498663E-11    -2.6574052178654676E-12  -4.6772266185752454E-11  1.2560619542811312E-10   1.893466786496349E-10    2.2103044945030395E-10   1.8785348493493347E-10   1.232073823915241E-10    3.7150135705540876E-11   -2.0553961314699647E-11  -6.258744226852237E-11
2.45E-5                   1.944817734509181E-11    -1.559855698041994E-11   -8.361624100500336E-11   1.8443960357456983E-10   2.605801110039763E-10    3.031136469113448E-10    2.5983534766158907E-10   1.8659885621171338E-10   8.657516558102386E-11    -2.841380050189721E-12   -5.015176728162332E-11
2.4999999999999998E-5     6.934027544700963E-12    -3.6198848910317016E-11  -1.2934792634473174E-10  2.5033136652277766E-10   3.381476890617356E-10    3.9472461776451783E-10   3.4443564106951886E-10   2.601684369180134E-10    1.4859677174798648E-10   2.0555792996083493E-11   -3.1451730448628846E-11
2.55E-5                   -1.1594911872568619E-11  -6.574381681640453E-11   -1.8064622018312882E-10  3.1895901555596206E-10   4.201788101697641E-10    4.928873990496479E-10    4.4105091799574236E-10   3.4623930006505157E-10   2.1974911540078137E-10   5.606995180969823E-11    -9.22714997651848E-12
2.6E-5                    -3.607723802746482E-11   -1.032705957766862E-10   -2.3357876164811885E-10  3.8678731317497776E-10   5.027990706707269E-10    5.924758484669983E-10    5.460984314965536E-10    4.446835298532897E-10    2.965267779706074E-10    1.0779453326925564E-10   1.8400914587754244E-11
2.65E-5                   -6.56295740090401E-11    -1.465926020149908E-10   -2.8535531392302635E-10  4.5215603483050116E-10   5.813975553828884E-10    6.872079722988956E-10    6.540348090955025E-10    5.499272306860404E-10    3.765987847931984E-10    1.7489345774012146E-10   5.7095155721189124E-11
2.7E-5                    -9.931101592584745E-11   -1.9292778345048387E-10  -3.3615813386385494E-10  5.151077559786129E-10    6.531606823813994E-10    7.713747359446673E-10    7.582275604179782E-10    6.529270483791004E-10    4.586632298009844E-10    2.5196650613935956E-10   1.1094673759743828E-10
2.7499999999999998E-5     -1.3678013452201676E-10  -2.397978460579499E-10   -3.883477359978902E-10   5.754815556421697E-10    7.168640936945128E-10    8.413917403661321E-10    8.520841666964682E-10    7.459243868141744E-10    5.420128474174545E-10    3.3232054394336713E-10   1.7828878212469013E-10
2.8E-5                    -1.7852401024179533E-10  -2.861077831329423E-10   -4.4265795750416015E-10  6.30446396827272E-10     7.694086293500914E-10    8.954417913014585E-10    9.297447108149847E-10    8.246376508235867E-10    6.256008462722154E-10    4.116015033456522E-10    2.527816077421187E-10
2.8499999999999998E-5     -2.2532417798066783E-10  -3.320227627286191E-10   -4.953583846310165E-10   6.736820584134012E-10    8.031276608738196E-10    9.302873329382848E-10    9.852909393932314E-10    8.865629380615298E-10    7.062746199860496E-10    4.886842992016953E-10    3.2818907054422024E-10
2.9E-5                    -2.7686320913007043E-10  -3.7749072246561614E-10  -5.393360133242632E-10   6.969332814861695E-10    8.076020579038939E-10    9.376921792404564E-10    1.0115476868885396E-9    9.285211565041014E-10    7.774791598341219E-10    5.636053081824268E-10    4.0192098432877337E-10
2.95E-5                   -3.304513442719125E-10   -4.207563977308443E-10   -5.670593960381616E-10   6.924057627753839E-10    7.744731225717874E-10    9.047074499148679E-10    1.0002924015239148E-9    9.454725879927375E-10    8.301457716555879E-10    6.353104812085365E-10    4.743862131424963E-10
2.9999999999999997E-5     -3.813552852432984E-10   -4.576044813694321E-10   -5.722032281778782E-10   6.540906638376387E-10    6.998784359777814E-10    8.185986059025705E-10    9.43158492938405E-10     9.296359391420236E-10    8.554189223708856E-10    7.012144226970256E-10    5.45612113951045E-10
3.05E-5                   -4.2468692743695955E-10  -4.814543917754165E-10   -5.499231844869675E-10   5.774635491351618E-10    5.817446197149068E-10    6.717753713004768E-10    8.313495368506096E-10    8.698206551904662E-10    8.467717265763475E-10    7.574674661973646E-10    6.126805331166866E-10
3.1E-5                    -4.5692857904041277E-10  -4.849847461805788E-10   -4.970931905410962E-10   4.584351196201025E-10    4.153456453839648E-10    4.617379122974774E-10    6.5522688945288E-10      7.531856738325579E-10    7.995227977212477E-10    7.980326505031563E-10    6.697795958240276E-10
3.15E-5                   -4.756407435621936E-10   -4.6303511476736894E-10  -4.1199252407829334E-10  2.929004827104412E-10    1.9269268688257128E-10   1.867930252128364E-10    4.0652883726890867E-10   5.697895861340017E-10    7.083904507108267E-10    8.131726903144895E-10    7.097493047152082E-10
3.2E-5                    -4.780678469695385E-10   -4.140844529628994E-10   -2.927774311362913E-10   7.737825973917549E-11    -9.320816934334802E-11   -1.568385022391859E-10   8.203419707152582E-11    3.161043138462199E-10    5.657927593622125E-10    7.899237998047765E-10    7.251934852180212E-10
3.25E-5                   -4.6026587983082446E-10  -3.3820424536649356E-10  -1.363420018695919E-10   -1.901304430126781E-10   -4.437074368330054E-10   -5.729164646954454E-10   -3.162434412958355E-10   -6.1442598933681984E-12  3.6299463833722696E-10   7.155893776867615E-10    7.087332968344815E-10
3.2999999999999996E-5     -4.17330426122307E-10    -2.3371629409357857E-10  6.076162217016413E-11    -5.098966984008065E-10   -8.538723548765284E-10   -1.060542038809429E-9    -7.853601497172176E-10   -3.942416510169227E-10   9.352210602732994E-11    5.819844699274828E-10    6.533222304248152E-10
3.35E-5                   -3.442027071268836E-10   -9.66555735587097E-11    3.0047411576706286E-10   -8.801688307424379E-10   -1.3154345067891873E-9   -1.6118699703017855E-9   -1.3243495040351714E-9   -8.468185360325408E-10   -2.4377215243485875E-10  3.8703375698840026E-10   5.53110132801698E-10
3.4E-5                    -2.364468030744389E-10   7.661119865317383E-11    5.824012526990045E-10    -1.2958235855785422E-9   -1.8194164396497727E-9   -2.213483495175665E-9    -1.930681341328267E-9    -1.3617877426181943E-9   -6.441730622689536E-10   1.3262910251919563E-10   4.041545671367669E-10
3.45E-5                   -9.070365459773496E-11   2.869956348324145E-10    9.036203391741617E-10    -1.746770869782494E-9    -2.3555544625057694E-9   -2.848571395689886E-9    -2.593632337770248E-9    -1.932454051107219E-9    -1.0992094914878646E-9   -1.7910296657220635E-10  2.0413264007123268E-10
3.5E-5                    9.521224294564967E-11    5.324436094025338E-10    1.2578555434181994E-9    -2.218043639729144E-9    -2.909224949413817E-9    -3.4973326462550394E-9   -3.2921557190705764E-9   -2.5459289189985062E-9   -1.599658662964084E-9    -5.479114111240878E-10   -4.873513400816044E-11
3.5499999999999996E-5     3.222877064501052E-10    8.085564123488399E-10    1.6347736714320897E-9    -2.691772442014366E-9    -3.4592636685267193E-9   -4.136099572700138E-9    -3.999111752720319E-9    -3.184940931324015E-9    -2.136973538764714E-9    -9.743921627773607E-10   -3.5639830597236495E-10
3.6E-5                    5.899340059287651E-10    1.1090420674224068E-9    2.0207091159328633E-9    -3.1489387281095887E-9   -3.97936048517763E-9     -4.736863839692874E-9    -4.686326114389188E-9    -3.830286734311967E-9    -2.7015319469101203E-9   -1.4567812907208502E-9   -7.203277524343638E-10
3.65E-5                   8.951563992891734E-10    1.4266300880719816E-9    2.399876183930232E-9     -3.569245676357442E-9    -4.441774966262839E-9    -5.267556262403713E-9    -5.325336268115505E-9    -4.460529324749721E-9    -3.2787432108903018E-9   -1.9877076115429973E-9   -1.1395037103608857E-9
3.7E-5                    1.2315944970910902E-9    1.753981507088583E-9     2.75452784516959E-9      -3.930002948956716E-9    -4.819152664784948E-9    -5.6926381062954505E-9   -5.884700247071948E-9    -5.0487014546668134E-9   -3.846448632275716E-9    -2.55256943473927E-9     -1.6080465978532922E-9
3.75E-5                   1.588899504667476E-9     2.0824788908044504E-9    3.064932129191152E-9     -4.206062159038693E-9    -5.082516933076752E-9    -5.974395922020212E-9    -6.327863500515452E-9    -5.559569770256922E-9    -4.376035581442199E-9    -3.130033575441139E-9    -2.1138391068331748E-9
3.7999999999999995E-5     1.9528676679516736E-9    2.3989441099322017E-9    3.310732963720714E-9     -4.371189625117826E-9    -5.1987950157783245E-9   -6.075499092730567E-9    -6.613430822242899E-9    -5.95132372619276E-9     -4.835795498264305E-9    -3.69416001238386E-9     -2.6389210409925885E-9
3.85E-5                   2.306521602894139E-9     2.6838463175023184E-9    3.4726351341492576E-9    -4.399322892858713E-9    -5.13257664006882E-9     -5.961768268525907E-9    -6.697068799599606E-9    -6.181430221682826E-9    -5.1931852313171705E-9   -4.21706854041034E-9     -3.1612686067501844E-9
3.9E-5                    2.631695823145962E-9     2.913625807549169E-9     3.532349286292008E-9     -4.264708965701091E-9    -4.8521143137334715E-9   -5.603137744865612E-9    -6.534384740199995E-9    -6.211908585512218E-9    -5.415134567865904E-9    -4.670882668365918E-9    -3.656638097003689E-9
3.95E-5                   2.910021178114519E-9     3.0652062725954667E-9    3.471474697174637E-9     -3.942161448541196E-9    -4.334607091909916E-9    -4.97257069544595E-9     -6.084879431248599E-9    -6.009706228076616E-9    -5.468360341319205E-9    -5.028003519188663E-9    -4.09925518222781E-9
3.9999999999999996E-5     3.1225015468372944E-9    3.1188630735265633E-9    3.2716237987329527E-9    -3.409274155491264E-9    -3.5665253240228477E-9   -4.045341068264535E-9    -5.316094096893971E-9    -5.543348423971951E-9    -5.320813005086051E-9    -5.259672877093276E-9    -4.461201346847874E-9
4.0499999999999995E-5     3.248283057917881E-9     3.0581781050225423E-9    2.91582759804884E-9      -2.6502594870733886E-9   -2.5401609353913306E-9   -2.801268340221207E-9    -4.205911933968801E-9    -4.7816060889351015E-9   -4.943140995852355E-9    -5.334056851563757E-9    -4.7114490767907795E-9
4.1E-5                    3.2643034699042546E-9    2.868554354961726E-9     2.3894129327606015E-9    -1.65898591877145E-9     -1.2515007320497956E-9   -1.229914479387477E-9    -2.7422492370980805E-9   -3.698125813482781E-9    -4.309472656059078E-9    -5.215919572880798E-9    -4.815774437732282E-9
4.15E-5                   3.146799999520139E-9     2.5359002083717287E-9    1.6803781491084384E-9    -4.395759799512769E-10   2.972747740468018E-10    6.637246264078536E-10    -9.222688957222919E-10   -2.2795551100363735E-9   -3.398801995699492E-9    -4.869323372616106E-9    -4.738218490289821E-9
4.2E-5                    2.8737416876948266E-9    2.0463246472328987E-9    7.813282621722398E-10    9.94582337247983E-10     2.0924580706460656E-9    2.8557034922765016E-9    1.2458328473971274E-9    -5.307733125639289E-10   -2.1980466399180154E-9   -4.262652355208429E-9    -4.443910293953942E-9
4.2499999999999996E-5     2.426473477639226E-9     1.3875204131530528E-9    -3.0646488262407557E-10  2.621486796579737E-9     4.104994756012669E-9     5.302829804224622E-9     3.738155533000284E-9     1.5263663542554288E-9    -7.056581815586917E-10   -3.3733577143116946E-9   -3.902381907207216E-9
4.2999999999999995E-5     1.790303299649059E-9     5.519960038789597E-10    -1.5692150775856555E-9   4.4099469095519855E-9    6.290364065313137E-9     7.944763973878882E-9     6.510822700374563E-9     3.858076359230308E-9     1.0660798078207584E-9    -2.190209560886997E-9    -3.090381716426188E-9
4.35E-5                   9.554894175459926E-10    -4.5899374421296196E-10  -2.979748218485684E-9    6.318273815744721E-9     8.590774055316431E-9     1.070669847842055E-8     9.499545810589996E-9     6.421611344890481E-9     3.090497775087482E-9     -7.132342616532809E-10   -1.99383277692391E-9
4.4E-5                    -8.039550937016061E-11   -1.6327479410997853E-9   -4.500149856781304E-9    8.293253677199872E-9     1.093705928108097E-8     1.3501194158525019E-8    1.2622681026086308E-8    9.163246676061011E-9     5.326953020988583E-9     1.0467286026598122E-9    -6.094293129988206E-10
4.45E-5                   -1.3098105488123107E-9   -2.9449785467568124E-9   -6.085962982442205E-9    1.027025016047243E-8     1.3249097299223173E-8    1.622931953757304E-8     1.5784111867888794E-8    1.2013783432483632E-8    7.721579937951423E-9     3.067550354907205E-9     1.0536922365369982E-9
4.4999999999999996E-5     -2.714073172901612E-9    -4.362097925093599E-9    -7.688923541759638E-9    1.2174708374641163E-8    1.543582569807225E-8     1.8782505585609315E-8    1.8873537178221534E-8    1.4886358594511172E-8    1.0208114318566E-8       5.314784899122949E-9     2.9727546129786933E-9
4.5499999999999995E-5     -4.2638056174312286E-9   -5.844287889370584E-9    -9.256513552331917E-9    1.3924736080536544E-8    1.739726793763712E-8     2.104591587490943E-8     2.176608836826677E-8     1.767856017429908E-8     1.2708542931039817E-8    7.740831373530616E-9     5.1114337194431065E-9
4.6E-5                    -5.919558590838725E-9    -7.347069058841545E-9    -1.0729641508687978E-8   1.5434339707451966E-8    1.9030092300329844E-8    2.2902340663422093E-8    2.432520566720631E-8     2.0276822200497903E-8    1.513367389747058E-8     1.0284160106145783E-8    7.420678147654466E-9
4.65E-5                   -7.631631642610476E-9    -8.820361145267725E-9    -1.2041753716882581E-8   1.6617106508440728E-8    2.0235264235489165E-8    2.4235258990268602E-8    2.6409820049711002E-8    2.256042875093975E-8     1.738441154477703E-8     1.2868279250505648E-8    9.83842800533021E-9
4.7E-5                    -9.339584169608505E-9    -1.0206585387523802E-8   -1.3121371307570492E-8   1.7389979287898272E-8    2.0923792628287177E-8    2.4931587341891854E-8    2.7882669327604305E-8    2.4405038595314133E-8    1.9354628122515214E-8    1.5401181528735212E-8    1.2287582238071156E-8
4.7499999999999996E-5     -1.0972467237674665E-8   -1.1440583727241838E-8   -1.3896979389476119E-8   1.7676500539142962E-8    2.101751429290911E-8     2.4886137793359427E-8    2.861606897218179E-8     2.5687319089200857E-8    2.0935733929062226E-8    1.7776748633894814E-8    1.4674222960678899E-8
4.8E-5                    -1.2450291532891902E-8   -1.2452483099249221E-8   -1.4301812729674983E-8   1.740937401792742E-8     2.04464963192425E-8      2.4008495533557043E-8    2.8494878605176902E-8    2.6290948560182007E-8    2.2022020302990048E-8    1.987878664582528E-8     1.6888867297419513E-8
4.85E-5                   -1.3686703690652437E-8   -1.3172009416770784E-8   -1.4277230143095834E-8   1.653318308727108E-8     1.914889696657424E-8     2.223037397527409E-8     2.7419313520239423E-8    2.6112400103592134E-8    2.2515420028355538E-8    2.158683252259453E-8     1.8811298551063282E-8