% Model:              Untitled.mph
% Version:            COMSOL 6.0.0.405
% Date:               Jul 16 2025, 18:07
% Dimension:          1
% Nodes:              401
% Expressions:        11
% Description:        Point graph
% Time (s)                Displacement field, Y component Displacement field, Y component Displacement field, Y component Displacement field, Y component Displacement field, Y component Displacement field, Y component Displacement field, Y component Displacement field, Y component Displacement field, Y component Displacement field, Y component Displacement field, Y component
0                         2.6836047862865414E-34   4.239251759323425E-34    -3.043358696907143E-32   6.049874415591026E-32    1.8787304156596973E-31   -1.0178226830356374E-30  -2.6626398841111017E-31  3.7919810231003284E-32   -7.325000921861258E-31   -2.3930685812262158E-32  -1.6015308842997835E-32
5.0E-7                    2.2570702155148365E-25   -1.5724454454738752E-24  2.8743519039171763E-25   1.3681840674948068E-23   -1.362067726029837E-23   1.0031518803020661E-23   3.205365139353441E-22    3.272708160816837E-22    1.5378624518801853E-22   -1.5652935392005146E-23  -4.417550931137953E-24
1.0E-6                    -3.6993013027023073E-25  1.1968122371565808E-23   2.7438679292574645E-22   -1.4696989368059876E-22  -6.537204146780343E-22   9.008452145586986E-22    5.908675264749903E-22    4.28385452774848E-22     -5.656993601869649E-22   -5.848337411693379E-23   4.077624419078451E-23
1.5E-6                    -3.009054901824719E-24   -2.395917930925282E-23   -1.3808489305889502E-21  3.6030992763439824E-22   1.0445996220431617E-21   1.0228218760879818E-20   -2.083848821145846E-21   -5.026958721747732E-22   3.951389921664014E-21    1.0196693546017537E-21   -1.5718658259553328E-22
2.0E-6                    -3.5393017134110284E-24  3.7713895537905984E-23   -2.0155785688260738E-22  2.314237594813195E-21    1.8767002556779772E-20   -4.846902934861044E-20   8.827110847118725E-21    1.1460627851622359E-20   2.9133318841344017E-21   9.126155140827438E-22    3.373900974807552E-22
2.4999999999999998E-6     2.9148921099455337E-23   -2.926119879735782E-22   1.1092869287303859E-20   -8.282581274336841E-21   -2.12031804983354E-20    -6.520261429556762E-20   -1.7365022400524414E-20  1.6065144797730954E-20   -1.407486125538676E-19   -1.6746518680512385E-20  2.7827960042286217E-22
3.0E-6                    8.686956116580626E-23    1.972254901424271E-22    -7.386330939563537E-22   -2.8230791148830033E-20  -1.1404333564515767E-19  2.995938777049064E-19    -1.0990879165885128E-19  1.370661193893608E-19    1.0075011210703231E-19   -6.2254321981153876E-21  -1.6791049573793227E-21
3.5E-6                    -1.407776104142417E-22   2.5627459594811494E-21   -2.8513051529556355E-20  2.6816834668684625E-20   2.259754423843293E-19    6.441183990379112E-19    9.738558990154302E-20    -9.32654826844335E-20    1.0309527917096916E-18   1.0826688900398629E-19   -2.811154985087958E-21
4.0E-6                    -7.590556113782041E-22   -2.9898852102647802E-22  -1.3497421876656806E-20  8.83935220096843E-20     7.466281847842548E-19    1.4041885210664367E-19   8.937491997951316E-19    -8.327354372723942E-19   1.6906578971096657E-19   9.114581820158704E-20    3.2793665688116768E-21
4.5E-6                    -4.394471148341303E-22   -1.498323275505861E-20   -1.0824832882869851E-19  -1.6227055095863492E-19  -7.577219889953206E-19   -4.7380679600283005E-18  1.8528858016704677E-19   1.8926381906804052E-18   -4.66698250721102E-18    -3.6307421456806074E-19  2.2999260011126016E-20
4.9999999999999996E-6     4.03586414184609E-21     -2.612676057885208E-20   -7.553565284151976E-20   -1.1317374210135195E-19  -1.6364555772379726E-18  -7.71304849433491E-18    -2.2887511739379672E-18  6.606980281673166E-18    -7.351064965503548E-18   -5.285366495704691E-19   2.4621756702399618E-20
5.5E-6                    1.020552703899769E-20    6.582859248894903E-20    1.184865117257594E-18    1.2702111566696518E-18   6.703574129019466E-18    2.3587124547132243E-17   7.825761563272653E-18    9.400691634595799E-19    1.1712471406470456E-17   7.283638024366407E-19    -6.28247198200247E-20
6.0E-6                    -5.9221378546044465E-21  2.802641968389787E-19    2.1381696491086658E-18   3.693770363997346E-19    8.869699107590387E-18    6.196656560108716E-17    3.335822864422334E-17    -1.0750583137282982E-17  5.0664223992689604E-17   1.2154358312603103E-18   -2.69734215638494E-19
6.5E-6                    -6.40252689494904E-20    -1.6602027114909425E-20  -2.6964053909107914E-18  -6.232504591653195E-18   -2.4585691815683954E-17  -2.3109911538838378E-17  8.82114763253463E-18     -1.5594078962886346E-17  1.3498209036930304E-17   -4.0731810117307446E-18  -2.872684941327164E-19
7.0E-6                    -7.95119351767202E-20    -1.529960375308959E-18   -1.0368674961318895E-17  -3.5647158897991004E-18  -3.9610478759036375E-17  -1.8688637371298473E-16  -1.1187193823637839E-16  -1.1276159381484748E-17  -1.7615016222365055E-16  -9.590623290874418E-18   9.361522076727195E-19
7.499999999999999E-6      1.5050341849511616E-19   -2.1338388205031666E-18  -1.8780703535090832E-18  2.2423456099973342E-17   5.250792887294034E-17    -1.321943390335437E-16   -1.5665485131397423E-16  6.137816047569727E-17    -2.3312813554045245E-16  7.17691531170145E-18     3.4263331594435474E-18
8.0E-6                    6.325386615873589E-19    4.0160441930591205E-18   3.204787315869848E-17    3.660831584066621E-17    1.3366246692912625E-16   1.470708775229468E-16    1.177762367335564E-16    2.0903476005942235E-16   3.1825194262893788E-16   4.5984513036975515E-17   1.4069181405823019E-18
8.5E-6                    6.13116209664626E-19     1.6206443963197004E-17   6.947773144946715E-17    9.254489293279014E-18    -6.831128417303166E-19   4.3488784722685646E-16   5.230078429434469E-16    1.445756102633379E-16    1.1148896169041784E-15   3.648930472685597E-17    -1.3656260723578787E-17
9.0E-6                    -1.4792535234826409E-18  7.778303867875623E-18    8.242883602360449E-17    6.057557400096672E-18    -1.6306234259853738E-16  9.814426407857048E-16    3.9206143778418753E-16   -3.0862424260108996E-16  6.710767242054663E-16    -7.465994741901513E-17   -2.83052189681932E-17
9.499999999999999E-6      -5.5421896833900824E-18  -5.5199691704343676E-17  4.2439396362478934E-17   6.214911130806208E-17    9.763319686254879E-17    1.211155863400689E-15    -6.503298645879661E-16   -6.22324572947747E-16    -1.7141139448834648E-15  -1.1329786292291501E-16  1.0317181903978643E-17
9.999999999999999E-6      -4.108371917271177E-18   -1.0448354233045627E-16  -3.066340418269445E-17   1.550684729807333E-16    9.419064039679404E-16    -1.5412178938822762E-15  -1.6909395087162375E-15  -1.8372928262341774E-17  -3.764238559367736E-15   2.375739404125E-16       1.1901179905580867E-16
1.05E-5                   1.5569431947480038E-17   7.743058539073343E-17    2.874772982948587E-16    6.840069635242303E-16    2.3506605144750684E-15   -6.833130320921268E-15   -3.549720014204476E-16   2.2623367404078784E-15   -1.0630769905716597E-15  7.598708969603323E-16    1.2798522197643265E-16
1.1E-5                    4.4189291911285785E-17   4.99793864428366E-16     1.969668287312357E-15    2.338651685630261E-15    3.882706955824094E-15    -4.953795982565691E-15   4.7082000700021665E-15   7.035671163654656E-15    8.416460505138298E-15    4.0674483734407074E-16   -2.270727097815051E-16
1.15E-5                   2.2529258645213982E-17   4.779993960041247E-16    5.1962058985115505E-15   4.724958847856349E-15    4.16204544748201E-15     1.3882385553994383E-14   9.383120181366074E-15    1.1946341661237513E-14   1.8581256575090842E-14   -9.78127049268482E-16    -7.398873694305308E-16
1.2E-5                    -1.009133639197808E-16   -6.636824737933963E-16   8.11545180939347E-15     7.302394018403657E-15    5.710410169163888E-15    3.9761275453438804E-14   6.202964755262712E-15    1.017556254949414E-14    1.5230021713582438E-14   -3.4411093920988176E-16  -4.621179108536475E-16
1.2499999999999999E-5     -2.1412437552238097E-16  -1.5574019184897117E-15  1.0941677437724294E-14   1.4615227653765184E-14   2.3505609052645826E-14   4.470374976970799E-14    -1.452122821175486E-15   4.029370426281392E-15    -7.362791065389232E-15   6.159359092222577E-15    1.0190349213390681E-15
1.3E-5                    -7.966760439426337E-18   1.1405686917083465E-15   2.372281690479319E-14    3.699558553079355E-14    7.665974505331193E-14    1.8465411465493408E-14   9.007908508137162E-15    1.770381191731674E-14    -1.936439849129052E-14   1.5782220282520708E-14   1.7532594248199E-15
1.35E-5                   6.726375872837246E-16    7.9110489598144E-15      6.283284334387866E-14    8.009122310112302E-14    1.5722876954679806E-13   2.7597061535387704E-15   5.704216471163973E-14    7.035867260998074E-14    3.6781381939461564E-14   1.938590512925165E-14    -1.3425548258437846E-15
1.4E-5                    1.298908253428411E-15    1.2917242493240516E-14   1.3281719988095966E-13   1.4275579191090682E-13   2.2792069925011887E-13   7.619615975932748E-14    1.2557639188739398E-13   1.362160375661532E-13    1.680673938946943E-13    1.8644480037104913E-14   -8.025064715262862E-15
1.45E-5                   7.482686522626512E-16    1.1681521290134991E-14   2.295094308244905E-13    2.4735345249061E-13      3.04051209768167E-13     2.891269630872098E-13    1.7866587750906571E-13   1.8983001331564324E-13   2.6441090340418153E-13   3.902604856382382E-14    -1.4012164436560753E-14
1.4999999999999999E-5     -1.3281668148043105E-15  1.4242920050578264E-14   3.9488582241524366E-13   4.733629449329826E-13    5.546518669479615E-13    6.213187518309957E-13    2.476588011822383E-13    3.2084264053344103E-13   2.094981729134589E-13    1.0544857190262084E-13   -1.7788050275822625E-14
1.55E-5                   -2.4808344042384543E-15  4.365439072221056E-14    7.612297775375118E-13    9.327676841293106E-13    1.2557642547219873E-12   1.0549045661465618E-12   4.990234424910296E-13    7.13533349471777E-13     1.4110534951275223E-13   2.039597740394556E-13    -2.52453843715979E-14
1.6E-5                    2.6539559901146138E-15   1.19097764916878E-13     1.4777513785746106E-12   1.7123439022385236E-12   2.565340316489773E-12    1.7281431019467436E-12   1.1603680615288236E-12   1.4136050828214185E-12   4.954197965802119E-13    3.1001831242496806E-13   -4.5995787890445895E-14
1.6499999999999998E-5     1.7446707724042666E-14   2.532147686534284E-13    2.587200358796359E-12    2.910270613410965E-12    4.3871223516577105E-12   2.9617566301765017E-12   2.2915854030520906E-12   2.1958261700024665E-12   1.5650000236907297E-12   4.852407659799786E-13    -9.95165009954648E-14
1.7E-5                    3.522326398465509E-14    4.732772258126171E-13    4.136752334374401E-12    4.793534611586611E-12    6.632361356078869E-12    5.034937670052621E-12    3.6033321964623042E-12   2.833705672957613E-12    2.979453825715339E-12    8.875123772273895E-13    -2.3830902679481226E-13
1.75E-5                   4.0388076359038257E-14   8.319203252916946E-13    6.59422499817236E-12     7.867794845783272E-12    9.727378001591266E-12    7.947012751366853E-12    4.656556464751729E-12    3.4828030299893925E-12   3.8980218036483344E-12   1.5951489172417772E-12   -5.345881083462365E-13
1.8E-5                    3.192297057835489E-14    1.4123377083244754E-12   1.0999531248359832E-11   1.2659384908532657E-11   1.4678810407760705E-11   1.1538628374191612E-11   5.526776398002203E-12    4.639493202240937E-12    3.969667771176231E-12    2.4687833994689543E-12   -9.971038574102523E-13
1.85E-5                   5.532454038869371E-14    2.409795864127404E-12    1.8146081686244985E-11   1.9338183210716292E-11   2.220023892170793E-11    1.5957312430640856E-11   7.368052464286782E-12    6.782018288697771E-12    4.04136949360633E-12     3.379537412851166E-12    -1.559300283768496E-12
1.8999999999999998E-5     1.9421159137020496E-13   4.255576612355848E-12    2.7228784669372564E-11   2.7497612817598232E-11   3.1459500859165576E-11   2.1913007682457114E-11   1.1968581512672275E-11   1.0290955175512974E-11   5.729523898184276E-12    4.6493662478969085E-12   -2.3285593360658643E-12
1.95E-5                   4.959538063622558E-13    7.48528991644441E-12     3.5716197086417345E-11   3.619372647347131E-11    3.983583894825366E-11    3.002870143157527E-11    2.0187005221666804E-11   1.5586975119128636E-11   1.0249040788034676E-11   7.054925754664018E-12    -3.8949500445374706E-12
1.9999999999999998E-5     9.046172539346974E-13    1.218475594035742E-11    4.138077757010674E-11    4.415920801241657E-11    4.442014761390891E-11    3.921764433866044E-11    3.059483996976027E-11    2.272808214065489E-11    1.756889031903121E-11    1.1152892310959892E-11   -7.091177146041723E-12
2.05E-5                   1.3318307595360717E-12   1.757683229205585E-11    4.4466267937190154E-11   5.021571306560971E-11    4.417346022363487E-11    4.54945313555439E-11     3.9861618619792845E-11   3.05113179503905E-11     2.6299277749625013E-11   1.6684907990574222E-11   -1.2075538467156952E-11
2.1E-5                    1.8729084052444093E-12   2.2643401377510375E-11   4.6810374280843005E-11   5.376113710527283E-11    4.0618362239206496E-11   4.3591518565815255E-11   4.463540357732126E-11    3.635778791305927E-11    3.404470210912849E-11    2.294153683080494E-11    -1.7760718614674442E-11
2.1499999999999997E-5     2.9541167191216116E-12   2.753181755076973E-11    4.831780634722347E-11    5.465605290383688E-11    3.6038644092890526E-11   3.1553679864935334E-11   4.295573483095124E-11    3.764112040401991E-11    3.821550124728284E-11    2.972148934809371E-11    -2.2698729303410814E-11
2.2E-5                    5.171218321635317E-12    3.392533808468196E-11    4.551755738995584E-11    5.206662106166902E-11    3.0490934330642404E-11   1.378966564244804E-11    3.406581997258108E-11    3.3207102958479264E-11   3.738972714766859E-11    3.750238395668166E-11    -2.6754547750460385E-11
2.2499999999999998E-5     8.875508053638009E-12    4.313831277916209E-11    3.4982205733214696E-11   4.3380824109850956E-11   2.030180863816568E-11    -2.5985647273271294E-12  1.7870423298046633E-11   2.3516544566822104E-11   3.2358948618348164E-11   4.623696001587682E-11    -3.1384987405879047E-11
2.3E-5                    1.3883793602922926E-11   5.3607570730491105E-11   1.7306131657131316E-11   2.5092287717879764E-11   -1.276685905713231E-13   -1.5889033173061966E-11  -4.387757092607777E-12   9.635707746064017E-12    2.541625644375969E-11    5.398684332498501E-11    -3.764333561187761E-11
2.35E-5                   1.9626013867786983E-11   6.100199006691446E-11    -4.485493683816327E-12   -4.519613685522285E-12   -3.3971777813153256E-11  -3.24486765612566E-11    -2.920294240133194E-11   -7.51511474466359E-12    1.7922449192144595E-11   5.710578253234208E-11    -4.3994445677589343E-11
2.4E-5                    2.5610653846448413E-11   6.15205626944485E-11     -3.041016075054582E-11   -4.383116741765989E-11   -7.839962776298852E-11   -5.911041696870418E-11   -5.214776346205078E-11   -2.714134941080859E-11   8.408910974432485E-12    5.216548823301875E-11    -4.6695944597737004E-11
2.45E-5                   3.174247377622572E-11    5.48976847579612E-11     -6.462218456851931E-11   -8.955484372027801E-11   -1.253386803637333E-10   -9.380929326074161E-11   -7.146017277037922E-11   -4.844202197455957E-11   -6.5688392352905574E-12  3.800609991458039E-11    -4.265123232872425E-11
2.4999999999999998E-5     3.815195456894317E-11    4.353817082779052E-11    -1.0963529561400955E-10  -1.398096133176329E-10   -1.6700276567062299E-10  -1.2691487902404907E-10  -9.012201987218785E-11   -7.076605357879996E-11   -2.932878600234789E-11   1.6107534255996578E-11   -3.1749317872992357E-11
2.55E-5                   4.466736004937165E-11    2.855187510621498E-11    -1.618134126606408E-10   -1.9495153022895925E-10  -2.0211468987078593E-10  -1.5253722027067464E-10  -1.1322309697507995E-10  -9.367287214141004E-11   -5.856553412388617E-11   -1.1032910307275072E-11  -1.6285169521755922E-11
2.6E-5                    5.038088515498813E-11    7.003206510745836E-12    -2.1519228777453694E-10  -2.55545039109737E-10    -2.373105079801017E-10   -1.7586691108211075E-10  -1.4253844535447228E-10  -1.166664582676277E-10   -8.978231121513343E-11   -4.2107681874933345E-11  1.8049206005522556E-12
2.65E-5                   5.361440207021579E-11    -2.659742848958438E-11   -2.685446936569248E-10   -3.2045776982124393E-10  -2.8189590541697827E-10  -2.0741842148600142E-10  -1.7399655758765513E-10  -1.3913813582088436E-10  -1.1846741678255268E-10  -7.785531279007585E-11   2.3081057405221796E-11
2.7E-5                    5.223690419300229E-11    -7.585973674984742E-11   -3.257720326786602E-10   -3.873458989610669E-10   -3.398002936132177E-10   -2.5118506965505426E-10  -2.01173469288441E-10    -1.611408748587422E-10   -1.4382545706338059E-10  -1.198042653891344E-10   5.015331116736062E-11
2.7499999999999998E-5     4.420856412839049E-11    -1.392765846477426E-10   -3.8960620402316857E-10  -4.540967298197849E-10   -4.0505236546382225E-10  -3.0000768469163116E-10  -2.214988354128659E-10   -1.8457583186759234E-10  -1.7043968221645142E-10  -1.6818929464610952E-10  8.523106126234006E-11
2.8E-5                    2.8334157016838227E-11   -2.1129226445774259E-10  -4.576417718346898E-10   -5.184972086632728E-10   -4.64406955603852E-10    -3.4179445058491646E-10  -2.386717230204066E-10   -2.1314515641973794E-10  -2.061805453337879E-10   -2.2129972913269613E-10  1.2802320306319002E-10
2.8499999999999998E-5     4.906010313950579E-12    -2.8680422400229945E-10  -5.24494547011447E-10    -5.763261707824046E-10   -5.052150022479895E-10   -3.6863998664817186E-10  -2.5864210505423225E-10  -2.497532106760095E-10   -2.569086469367764E-10   -2.7706886849570944E-10  1.7587282235039347E-10
2.9E-5                    -2.4630328063685096E-11  -3.646306460535541E-10   -5.843033433335401E-10   -6.209722960559385E-10   -5.223051712231578E-10   -3.799229901791055E-10   -2.8326359822766015E-10  -2.9257494544966987E-10  -3.2125425281437276E-10  -3.351175957479991E-10   2.2582689125523987E-10
2.95E-5                   -5.938601101758328E-11   -4.461694059061473E-10   -6.294500563517509E-10   -6.46014521618457E-10    -5.18015253809504E-10    -3.7785035731527427E-10  -3.077668161799723E-10   -3.334364225907771E-10   -3.895002721734367E-10   -3.9676435042068056E-10  2.765911078180334E-10
2.9999999999999997E-5     -1.0073012085702475E-10  -5.307162124116401E-10   -6.49843742568115E-10    -6.478003484534916E-10   -4.953111430388642E-10   -3.6096475253491657E-10  -3.2351290137816706E-10  -3.6098505106598495E-10  -4.4771471452032144E-10  -4.627210057120749E-10   3.2866476172361215E-10
3.05E-5                   -1.5168652078284257E-10  -6.129797084604332E-10   -6.369963153460126E-10   -6.242972860108496E-10   -4.50800028718935E-10    -3.2279007626274684E-10  -3.221262517195399E-10   -3.6662195231025923E-10  -4.841149499216142E-10   -5.306322121585123E-10   3.82763617982803E-10
3.1E-5                    -2.1379264294432883E-10  -6.856093291695324E-10   -5.885244880872167E-10   -5.711765818912197E-10   -3.750982240293792E-10   -2.5787098926792487E-10  -2.972784374721018E-10   -3.481830435084121E-10   -4.933652915900007E-10   -5.94388658722227E-10    4.3795768152301653E-10
3.15E-5                   -2.8443341544202214E-10  -7.43094190046058E-10    -5.062927918341785E-10   -4.799960549139743E-10   -2.604307307488979E-10   -1.6887447432629028E-10  -2.445152171028047E-10   -3.0847261522216876E-10  -4.768083641796742E-10   -6.450520999848592E-10   4.908661892760528E-10
3.2E-5                    -3.5781692558913433E-10  -7.819984093250255E-10   -3.897281458345774E-10   -3.40920259658265E-10    -1.0720944093603136E-10  -6.503153221689598E-11   -1.6149756795958882E-10  -2.506048195269233E-10   -4.3935453597753E-10     -6.722671403283372E-10   5.363529649184111E-10
3.25E-5                   -4.2893770704638836E-10  -7.980552967629021E-10   -2.325621997433096E-10   -1.470547610295703E-10   7.784815719287727E-11    4.9147296673056595E-11   -4.9238473237323055E-11  -1.7456581809293162E-10  -3.8484422994631056E-10  -6.658891999884958E-10   5.691670152133184E-10
3.2999999999999996E-5     -4.964682174398281E-10   -7.848305653177448E-10   -2.6800882310754255E-11  1.0362885331246819E-10   2.90251480582035E-10     1.82882684671733E-10     8.698394747721554E-11    -7.761186969591584E-11   -3.1214498086358217E-10  -6.180961063248188E-10   5.852599243539596E-10
3.35E-5                   -5.616548030137979E-10   -7.35419847206654E-10    2.3127763006662797E-10   4.0911198539879964E-10   5.337610140724655E-10    3.532608531339166E-10    2.382690362551236E-10    4.2577504059804793E-11   -2.1449684434308497E-10  -5.253115995550363E-10   5.816336817050971E-10
3.4E-5                    -6.245161952334988E-10   -6.434771547245699E-10   5.397954809674394E-10    7.645201654196301E-10    8.171511366892139E-10    5.676133842637244E-10    3.948460129564602E-10    1.853790876252535E-10    -8.301966733096231E-11   -3.884118439590092E-10   5.547595600012732E-10
3.45E-5                   -6.810679381140211E-10   -5.012137260294242E-10   8.943659426371482E-10    1.1625228435138062E-9    1.1440736165371876E-9    8.118552691026752E-10    5.505400819768021E-10    3.478566127356115E-10    8.808558740098903E-11    -2.105519728666448E-10   4.989319760664018E-10
3.5E-5                    -7.236937192948868E-10   -2.979757872952514E-10   1.2899340672319237E-9    1.5937848399667814E-9    1.5048678614002794E-9    1.0578308471242042E-9    7.062471672446607E-10    5.276472090128547E-10    2.987366725881656E-10    6.1407368789273136E-12   4.06102435354494E-10
3.5499999999999996E-5     -7.435371846383524E-10   -2.401473480797791E-11   1.7186683057953596E-9    2.0478450620603287E-9    1.877362742857322E-9     1.2831160666352206E-9    8.683159781432789E-10    7.244909676748709E-10    5.442837124532785E-10    2.6271829868864946E-10   2.676522573212075E-10
3.6E-5                    -7.324289911594509E-10   3.227127700264161E-10    2.167542852123557E-9     2.513137622605989E-9     2.2358903323828996E-9    1.4839230300758798E-9    1.0412658993268497E-9    9.380648063284072E-10    8.18930042327351E-10     5.628637659633695E-10    7.716688096897366E-11
3.65E-5                   -6.832485767271904E-10   7.345267773085673E-10    2.6196683796058176E-9    2.975161820236821E-9     2.56087906719144E-9      1.6692917137177702E-9    1.2204792595732554E-9    1.1640250114173172E-9    1.1180728874778427E-9    9.100027652401918E-10    -1.674768458350112E-10
3.7E-5                    -5.896031400695688E-10   1.2003344321969495E-9    3.0576453124509065E-9    3.4140617302745732E-9    2.8412671257162557E-9    1.8436862157959329E-9    1.3914488360550478E-9    1.3922835841982397E-9    1.4379089748976907E-9    1.3040482029092053E-9    -4.6396415306028625E-10
3.75E-5                   -4.4593273967682124E-10  1.7136049466456274E-9    3.4640268405448333E-9    3.803969158859889E-9     3.0685068493010465E-9    1.9954409391835987E-9    1.5356872546941506E-9    1.6088652517108475E-9    1.7726722216136172E-9    1.7397569320908973E-9    -8.070598819847153E-10
3.7999999999999995E-5     -2.4783770313089975E-10  2.272100769519941E-9     3.8179857934438495E-9    4.114810697889261E-9     3.228149557921735E-9     2.100784584424345E-9     1.637434617592664E-9     1.7988830223851678E-9    2.1113803279651177E-9    2.206966846819143E-9     -1.1901325089428976E-9
3.85E-5                   8.142909378171598E-12    2.8685125041434768E-9    4.0923921628678595E-9    4.3151286206009105E-9    3.2964523390957868E-9    2.137040397250309E-9     1.686560379346723E-9     1.948126102342945E-9     2.436706613387499E-9     2.691144833518465E-9     -1.6053551013930598E-9
3.9E-5                    3.249689280218596E-10    3.4820964260930335E-9    4.2547381929647395E-9    4.374356578827465E-9     3.2444603217543313E-9    2.0911307203228497E-9    1.677886895606087E-9     2.043673380463325E-9     2.727404488016974E-9     3.1727261660196207E-9    -2.0429683901429973E-9
3.95E-5                   7.045479789199504E-10    4.0804549674768046E-9    4.270852580335017E-9     4.264182920087242E-9     3.0458567323701787E-9    1.956953080675247E-9     1.6087690364897944E-9    2.0750258558024854E-9    2.962615338585272E-9     3.6258270890443985E-9    -2.4908449275477183E-9
3.9999999999999996E-5     1.1459863686870388E-9    4.628656262625273E-9     4.108738415975548E-9     3.95916504209152E-9      2.6827619150372127E-9    1.7276532946055856E-9    1.4757363931289924E-9    2.035154742879713E-9     3.1244507323628526E-9    4.018700328411063E-9     -2.9345287859325573E-9
4.0499999999999995E-5     1.6438367163802134E-9    5.0949907306399865E-9    3.741930190001222E-9     3.436876437837639E-9     2.1462060638004884E-9    1.3927554299874103E-9    1.2718133498488131E-9    1.9194374577544284E-9    3.197056406282955E-9     4.317289111891212E-9     -3.356764072898428E-9
4.1E-5                    2.187213170494156E-9     5.448310848246939E-9     3.1527097726960256E-9    2.678566306033538E-9     1.4324417693056666E-9    9.432071149741495E-10    9.876302874787139E-10    1.7225403145947173E-9    3.1639694278971612E-9    4.4900791016246915E-9    -3.736244641021035E-9
4.15E-5                   2.759461715153754E-9     5.652859117536924E-9     2.3336408198899086E-9    1.6714603335682873E-9    5.395851288538312E-10    3.788532890933399E-10    6.169672385191451E-10    1.4363454493627373E-9    3.0068395228214426E-9    4.510789200273779E-9     -4.0469888823872034E-9
4.2E-5                    3.338259170950684E-9     5.668540441387331E-9     1.2852529125851067E-9    4.1221129141636174E-10   -5.310702192786281E-10   -2.887793238155517E-10   1.6232730553690061E-10   1.0516985583644908E-9    2.706706111369906E-9     4.357484029927351E-9     -4.2598607264214326E-9
4.2499999999999996E-5     3.896962063378885E-9     5.456447159554316E-9     1.1318004496501473E-11   -1.0904654790452137E-9   -1.7690402238787838E-9   -1.0405033930993881E-9   -3.64598564982233E-10    5.629980340435736E-10    2.24680821192383E-9      4.010029058973792E-9     -4.345836692442243E-9
4.2999999999999995E-5     4.407257672298697E-9     4.9830626041160614E-9    -1.4827716154182967E-9   -2.8148485890465703E-9   -3.1491507964394075E-9   -1.8565102466400014E-9   -9.473539166576795E-10   -2.8245348507726926E-11  1.61534984668655E-9      3.448535116656183E-9     -4.278848436997315E-9
4.35E-5                   4.841106640990709E-9     4.2200310735674045E-9    -3.1847143986018356E-9   -4.725830908127742E-9    -4.6321034072104E-9      -2.720247442728778E-9    -1.568964023931883E-9    -7.134821714706282E-10   8.071604281262356E-10    2.653553449875248E-9     -4.036448682495189E-9
4.4E-5                    5.169944023778582E-9     3.1436342531803696E-9    -5.066416326143502E-9    -6.7744211793211425E-9   -6.170672967539198E-9    -3.6153881809607546E-9   -2.2123736141201672E-9   -1.4795997050360152E-9   -1.7609453712889838E-10  1.6077036072763206E-9    -3.5986976064930006E-9
4.45E-5                   5.362028654067441E-9     1.7385983014715949E-9    -7.079439676280841E-9    -8.898397543109053E-9    -7.71525124268891E-9     -4.518212008757587E-9    -2.858449106827523E-9    -2.3105612565873756E-9   -1.326488734963572E-9    2.992537270053581E-10    -2.947303384686665E-9
4.4999999999999996E-5     5.381263040661905E-9     4.338986611647805E-12    -9.15885046219205E-9     -1.1024851501489195E-8   -9.21377671620734E-9     -5.392845438745335E-9    -3.484988900616525E-9    -3.186760822409412E-9    -2.6296329828592207E-9   -1.2718986925998937E-9   -2.0666600643236783E-9
4.5499999999999995E-5     5.189715460352143E-9     -2.0421299688428532E-9   -1.1231190093941346E-8   -1.3072616005533058E-8   -1.060785186106622E-8    -6.195058678946816E-9    -4.067817304900384E-9    -4.083638448015043E-9    -4.062642816176521E-9    -3.08790069355412E-9     -9.46688730032185E-10
4.6E-5                    4.7528084401211025E-9    -4.3682093184413204E-9   -1.3218777675565802E-8   -1.495253475046024E-8    -1.1830708629445949E-8   -6.8817369100345194E-9   -4.58245307932827E-9     -4.971630316616201E-9    -5.591290849463601E-9    -5.110199597465659E-9    4.138528076153519E-10
4.65E-5                   4.044146408688283E-9     -6.9281248045321814E-9   -1.503737706476929E-8    -1.656732425245947E-8    -1.2809798518639607E-8   -7.416835138305897E-9    -5.005191140138212E-9    -5.817467500990155E-9    -7.168969752348056E-9    -7.282329076608902E-9    2.0048227738638664E-9
4.7E-5                    3.0476187190855845E-9    -9.661704175742547E-9    -1.6591849133432252E-8   -1.781472504932836E-8    -1.3471951203459801E-8   -7.768888652166413E-9    -5.3139838533073356E-9   -6.585420061177802E-9    -8.739231812213721E-9    -9.536058770810142E-9    3.80342676344529E-9
4.7499999999999996E-5     1.7565874301037489E-9    -1.249142449453328E-8    -1.777703192511642E-8    -1.859402441735585E-8    -1.3748060766313931E-8   -7.905618792785732E-9    -5.489420866138469E-9    -7.238213190106874E-9    -1.0240858704959457E-8   -1.1796815588325895E-8   5.7742681146751704E-9
4.8E-5                    1.7202712004788723E-10   -1.532243117152271E-8    -1.848650348015234E-8    -1.8811788178935963E-8   -1.357664456711875E-8    -7.794898557337156E-9    -5.515096671541181E-9    -7.738911949631724E-9    -1.16122584151194E-8     -1.3985769563685236E-8   7.870413725438404E-9
4.85E-5                   -1.6977526884470104E-9   -1.8046294520501967E-8   -1.8624637351723443E-8   -1.838425428863676E-8    -1.2907186346197543E-8   -7.413471057936595E-9    -5.377285736018544E-9    -8.05416158947009E-9     -1.2792495047964957E-8   -1.601855677998975E-8    1.0034695769785422E-8