% Model:              Untitled.mph
% Version:            COMSOL 6.0.0.405
% Date:               Jul 15 2025, 13:50
% Dimension:          1
% Nodes:              401
% Expressions:        11
% Description:        Point graph
% Time (s)                Displacement field, Y component Displacement field, Y component Displacement field, Y component Displacement field, Y component Displacement field, Y component Displacement field, Y component Displacement field, Y component Displacement field, Y component Displacement field, Y component Displacement field, Y component Displacement field, Y component
0                         1.3009853796265056E-35   2.332184819567065E-35    4.347049588049516E-35    1.259219446972443E-32    4.3921254371154416E-32   6.403742397300536E-32    8.592066984943581E-32    1.1049234684572127E-32   -3.541035501714546E-35   4.666097334173682E-35    -5.577218945604571E-34
5.0E-7                    -2.0388330457461713E-27  -4.861398918752371E-27   -7.204537341548103E-26   -1.4194016758403277E-22  -1.1398148348666308E-22  1.8394893159539779E-22   7.690302036651238E-23    2.7477575346664605E-23   3.9898544595830166E-27   1.277270292519151E-24    4.522077737826784E-23
1.0E-6                    3.502730473567624E-27    -5.373036996446481E-26   2.2973237925275487E-25   -5.69225863722937E-22    -8.696108234261805E-22   -1.1501709211660853E-21  -5.506492171658423E-22   -1.9347710862885147E-22  1.0293147544617493E-26   -1.2610765483690793E-23  -9.129455743354052E-23
1.5E-6                    -1.1822189030379366E-26  2.207702578691376E-25    1.5351956781535226E-24   3.1976255662026584E-21   9.218954557541483E-21    2.3941637993262975E-21   1.9736184884227326E-21   2.899465655126137E-22    -1.0058984104666787E-25  -4.8039573505277824E-24  -1.0369675741452187E-21
2.0E-6                    5.469615003402042E-26    -2.129324582581028E-25   -1.0214030124192651E-23  3.2777743230385472E-21   -1.511495079239613E-20   -2.0122291577115776E-22  -6.583006462039077E-21   1.310499904339207E-21    2.964495464396651E-25    1.5209516168772068E-22   2.617830704524186E-21
2.4999999999999998E-6     -9.764832289249384E-26   1.2823040728961987E-24   -4.9598331362761904E-23  -1.0799898996425238E-20  -5.60754102880835E-20    -2.8164710810045617E-21  7.842648295710762E-21    -4.2006824816896364E-21  -1.4123438412303582E-25  2.7013726262327947E-23   6.7033116403210356E-21
3.0E-6                    5.191106728941226E-26    2.6676550559804067E-24   5.023963231499803E-23    -3.5995560602582254E-20  1.6078390244866807E-19   1.058268374186342E-21    5.7814145197754E-20      -7.631638241745125E-21   -1.2831220525609954E-24  -8.303829246583598E-22   -1.7926218134957125E-20
3.5E-6                    1.0690469143019472E-24   -3.5119332035370526E-23  4.334803954182781E-22    -2.844348511697571E-20   1.7156749466272378E-19   -6.746903551361836E-20   -1.4990086996698706E-19  3.947043290700667E-20    1.3480077324654913E-24   -7.633436781953124E-22   -3.792673971833775E-20
4.0E-6                    -3.098720063894552E-24   2.270050454228205E-23    4.572126582840012E-22    3.2286868523760557E-19   -6.893589271312648E-19   1.601057018755327E-19    -4.0705973189126164E-19  3.9166683848286467E-20   1.0089963169616222E-23   1.3427828701724806E-21   5.191595989788618E-20
4.5E-6                    -7.884562455008698E-24   3.670180625716761E-22    -7.936979251873935E-22   6.258567022332429E-19    -1.280893793078573E-19   5.551404167645494E-19    1.0624775797752255E-18   -2.718415668373332E-19   -2.367347273653454E-23   7.119720404251191E-21    1.9073121367300239E-19
4.9999999999999996E-6     2.8023507428293837E-23   -2.0222072818005783E-22  -1.7265316603511807E-21  -1.608881026925086E-18   1.2650717522705973E-18   -1.3026364039902822E-18  3.1139938899558466E-18   -2.293397782446528E-19   -4.5841653338715895E-23  8.743425412461796E-21    6.261793373067229E-20
5.5E-6                    7.844506406111597E-23    -1.915556812461071E-21   7.66667893689701E-21     -4.707695075282512E-18   -3.0174994375991813E-18  -2.6548343286020087E-18  -4.7801033206953686E-18  1.4172465738276462E-18   1.8288234581376244E-22   -7.118495516207052E-20   -7.369769010078861E-19
6.0E-6                    -1.9876450569619334E-22  1.6981166956059474E-21   3.6705608589509174E-20   3.782015117755357E-18    1.825594001452896E-18    6.1327767375714676E-18   -1.9987747003197796E-17  1.4864099291770952E-18   1.7926736090806586E-22   -2.2027065529843535E-19  -1.5572268829321288E-18
6.5E-6                    -5.075727854109195E-22   1.0977525651487509E-20   3.850078603646442E-20    2.2965231173701998E-17   3.154439565808156E-17    9.804050360891535E-18    1.1033852784646682E-17   -5.479614797102828E-18   -8.250756805820507E-22   1.2189501047704155E-19   1.2184856302733067E-18
7.0E-6                    1.6376588939087198E-21   7.320323079777579E-21    -2.755233324681052E-20   9.434272424057644E-18    -1.5736006958125278E-18  -2.0929635046176176E-17  9.81808203780042E-17     -7.814312608119887E-18   -1.1453804785578381E-21  9.780699916977338E-19    7.7286917685228E-18
7.499999999999999E-6      4.518708488928175E-21    -3.396226351696964E-21   1.67495004642706E-19     -6.041032760951522E-17   -1.6114124345651E-16     -2.4047174369136993E-17  2.8189336789200084E-17   1.6028103968890367E-17   2.099694658018944E-21    -1.1253435510207481E-18  1.6900658993147E-18
8.0E-6                    -3.711985276937817E-21   2.5918870599199234E-20   1.2017051359640605E-18   -8.55716285095093E-17    -9.97768087330825E-17    8.668927303925399E-17    -3.338315965500743E-16   3.3568225930751795E-17   7.575866482698889E-21    -9.363834323826586E-18   -2.992902571068186E-17
8.5E-6                    -1.0474583550051486E-20  1.725088253513173E-19    3.198465262182658E-18    6.79390204513404E-17     5.632007772485333E-16    1.0527368948386837E-16   -3.4849616559911076E-16  -2.7194710112344773E-17  1.938158915650006E-21    -1.395442538998097E-17   -5.048934275080269E-17
9.0E-6                    4.970869278383364E-20    7.710591171262961E-19    8.485172414094641E-18    3.140761206615527E-16    9.356236399760288E-16    -2.5259795863891525E-16  7.502391600153061E-16    -9.83880117672758E-17    -4.068728072707068E-20   -5.635359766255199E-18   -1.2265778284917708E-17
9.499999999999999E-6      1.7954746330827659E-19   2.1817218173439738E-18   2.7031268771480662E-17   3.7783448473462295E-16   -6.505803151623415E-16   -4.172469723302969E-16   1.7098877822555449E-15   2.6126160111494383E-17   -8.078632119386182E-20   -3.81242760004675E-17    1.569062134328421E-17
9.999999999999999E-6      2.6606166575760697E-19   3.914421820938706E-18    7.305135703018202E-17    1.5988675255187087E-16   -2.9700469363442493E-15  7.299694290987349E-16    -1.8000340293570878E-16  2.7893011888456503E-16   7.420846255474729E-20    -2.400906076584778E-16   -1.796618149838005E-16
1.05E-5                   5.257126217483369E-19    8.887097325458758E-18    1.707817872191942E-16    -1.2265252249368354E-16  -6.590586169530596E-16   2.4283801309772332E-15   -4.059468827419283E-15   2.2167357018513455E-16   3.605075914208938E-19    -6.860377400670282E-16   -8.867569256964459E-16
1.1E-5                    1.8847535857055675E-18   3.428981201369517E-17    4.3598267680604123E-16   1.6515191205295344E-16   8.56745172757279E-15     1.4540366439809965E-15   -3.350121940940962E-15   -2.039698157798072E-16   -3.1044922460929013E-19  -1.4279922163833845E-15  -2.490349379854555E-15
1.15E-5                   5.6657737393921285E-18   1.0812657419252364E-16   1.2187420427019957E-15   3.0057829486614434E-15   1.5499824090741487E-14   -3.0163996256158065E-15  6.8833434188281666E-15   -2.0026659126974905E-16  -2.8331075832110106E-18  -3.182584628034647E-15   -5.623806500047834E-15
1.2E-5                    1.5077564126274006E-17   2.572121694753056E-16    3.1818251881385805E-15   1.2017003797263044E-14   6.984187114012745E-15    -4.1685832950470475E-15  1.9362834582665362E-14   1.1606227953903392E-15   -4.270197329204068E-18   -8.402612074626201E-15   -1.238552529460829E-14
1.2499999999999999E-5     4.0560986839765436E-17   5.898785332475073E-16    7.54039425763313E-15     2.9073092402428456E-14   -9.648344149493641E-15   8.82363847795256E-15     1.5188110378202116E-14   3.882899905329629E-15    -8.532408635573941E-19   -2.208491095016349E-14   -3.049317130807552E-14
1.3E-5                    1.0450406369908433E-16   1.5276937153314998E-15   1.7408582117748832E-14   5.172057722443434E-14    3.826066277891182E-15    3.790480388332184E-14    -1.2252816703129147E-14  6.469501653487418E-15    -4.819171393997523E-18   -5.3624244088804876E-14  -7.906116216724324E-14
1.35E-5                   2.5020233127069195E-16   3.988173510377142E-15    4.097262784227038E-14    8.453825271841651E-14    8.175321056921506E-14    6.591492037791437E-14    -2.0687701966462284E-14  8.061515345982793E-15    -5.059340054193563E-17   -1.2255123501709117E-13  -1.921151846047384E-13
1.4E-5                    5.912377967423445E-16    9.536816501506885E-15    9.560551220231937E-14    1.6223118582986891E-13   1.9905345737051158E-13   6.846824632050421E-14    6.632495193067851E-14    1.6526239347902596E-14   -1.5561057739406779E-16  -2.684952504221168E-13   -4.2594561568299717E-13
1.45E-5                   1.4362629400648279E-15   2.1559884688431658E-14   2.123636466886648E-13    3.497440271020545E-13    2.7238840305098405E-13   6.260768607531305E-14    2.461905950878549E-13    5.102029072619234E-14    -2.9381188250636403E-16  -5.654113600982271E-13   -8.872659672700308E-13
1.4999999999999999E-5     3.478479875264164E-15    4.869568668882026E-14    4.4608345509655185E-13   6.991992177560128E-13    2.593710893884323E-13    1.6068454084027865E-13   3.724538528715433E-13    1.198414341078012E-13    -5.409068537878059E-16   -1.14609019999675E-12    -1.778978334617085E-12
1.55E-5                   8.096604272302897E-15    1.0966473119513898E-13   8.998492552324997E-13    1.2237421364136877E-12   2.823529372426184E-13    5.233775193765505E-13    3.788678270161795E-13    2.0774154028473697E-13   -1.3806604121553393E-15  -2.2353140803302743E-12  -3.422084640531233E-12
1.6E-5                    1.8091790983819476E-14   2.3784964884221557E-13   1.7567849696832059E-12   1.9641099343849345E-12   6.228952972734966E-13    1.1608378178229223E-12   6.086757938353344E-13    3.486148691238545E-13    -3.786081193850435E-15   -4.158128610848812E-12   -6.218826935695487E-12
1.6499999999999998E-5     3.945942835147091E-14    4.895001113991089E-13    3.2854532273656018E-12   3.066392985142948E-12    1.505605086558317E-12    1.834104475267671E-12    1.6115439609085591E-12   7.244919883888354E-13    -8.938904962659178E-15   -7.284456904177156E-12   -1.0575631671878632E-11
1.7E-5                    8.469953835810374E-14    9.647008949529674E-13    5.797534185927292E-12    4.672212823214442E-12    2.8657203264444256E-12   2.500990303026862E-12    3.4155866523273357E-12   1.5768420707331935E-12   -1.8813829708006682E-14  -1.1934348601057298E-11  -1.6812921315786762E-11
1.75E-5                   1.7787434975506656E-13   1.838491514682079E-12    9.594188118111932E-12    6.6929454882632125E-12   4.550807078165946E-12    4.177440595641648E-12    5.518074635353293E-12    2.9826555368488743E-12   -3.939098964547757E-14   -1.830687918080201E-11   -2.5024297893805875E-11
1.8E-5                    3.6184269949048107E-13   3.373413794222119E-12    1.4928314861135905E-11   8.979624099092827E-12    7.064046158568922E-12    9.021211420093619E-12    8.269112918353662E-12    5.007612537145943E-12    -8.528655162035263E-14   -2.6398890728949402E-11  -3.483957700610666E-11
1.85E-5                   7.084547986231583E-13    5.881705590100102E-12    2.18791595501087E-11     1.2149229763309497E-11   1.195104864647116E-11    1.8583103573399546E-11   1.3765876045089423E-11   8.361688000867822E-12    -1.817498597669077E-13   -3.5794739095120195E-11  -4.5190239219574E-11
1.8999999999999998E-5     1.3303306173296743E-12   9.64682369125067E-12     3.002850054949987E-11    1.8147034452532316E-11   2.0660192126787398E-11   3.139939364877673E-11    2.3882895464184143E-11   1.4509056885532539E-11   -3.6628088063676057E-13  -4.540108174004275E-11   -5.431718465853471E-11
1.95E-5                   2.387516391680342E-12    1.4844313262380588E-11   3.818676477510773E-11    2.897291787966206E-11    3.244492061399911E-11    4.297113450441231E-11    3.696839619468859E-11    2.428296194111028E-11    -7.023226714171422E-13   -5.349061099284917E-11   -6.014872492105627E-11
1.9999999999999998E-5     4.080716997737196E-12    2.1451745250538768E-11   4.471834469377837E-11    4.364269447504703E-11    4.385199135702388E-11    4.9229954424038884E-11   4.7962983176474284E-11   3.628709232701813E-11    -1.3064393155417298E-12  -5.82332759782008E-11    -6.086593621470442E-11
2.05E-5                   6.6278840400675066E-12   2.907736291785251E-11    4.8475049036602E-11      5.644279845799203E-11    5.111278787109653E-11    5.0118043268762864E-11   5.310567254187419E-11    4.759010351065359E-11    -2.3591485371479555E-12  -5.828423800247395E-11   -5.534928432894274E-11
2.1E-5                    1.0210526882148439E-11   3.6740639989894666E-11   4.930183026512166E-11    5.990673816631197E-11    5.293343880083527E-11    4.893374659176245E-11    5.3679214648011186E-11   5.64615517583932E-11     -4.073629166373583E-12   -5.290234811519465E-11   -4.341033142115838E-11
2.1499999999999997E-5     1.4835290799843E-11      4.2862499119719494E-11   4.720474843119766E-11    5.1383387028848775E-11   5.017583795135684E-11    4.796006013365591E-11    5.350897950448207E-11    6.345032385167672E-11    -6.651581955023138E-12   -4.17713617786289E-11    -2.5819957530141624E-11
2.2E-5                    2.0065071494382106E-11   4.5699976839256106E-11   4.1084677594081834E-11   3.6615353231501866E-11   4.3075096699229525E-11   4.554151767760645E-11    5.315334618857551E-11    6.890127802142726E-11    -1.0252297257945724E-11  -2.4975818246617622E-11  -3.8627330965954694E-12
2.2499999999999998E-5     2.475964811034558E-11    4.401303397842198E-11    2.9051951672741163E-11   2.4852686532246172E-11   3.030616836504269E-11    3.7780871536673944E-11   4.852833253582891E-11    7.042561624270903E-11    -1.48838317757907E-11    -2.8341190410680734E-12  2.1868439057452768E-11
2.3E-5                    2.7214822986202166E-11   3.738026696809236E-11    1.0440579214042704E-11   1.8850881013989608E-11   1.1463121726090516E-11   2.2229727208231725E-11   3.5753185207700234E-11   6.44347609137741E-11     -2.0118672084615798E-11  2.491939165606178E-11    5.280980090573437E-11
2.35E-5                   2.5949069719292127E-11   2.588734784728028E-11    -1.3204894964062854E-11  1.0209367736520176E-11   -1.1086574021003989E-11  -7.422059796122914E-13   1.5532445337481647E-11   4.978353012820348E-11    -2.484720727041936E-11   5.982462284582508E-11    9.24010198476786E-11
2.4E-5                    2.0671062601363915E-11   9.573093670440953E-12    -4.0219762568894606E-11  -1.4016952141061912E-11  -3.4719744137317253E-11  -2.945589314693878E-11   -8.634335127324608E-12   2.807240932432182E-11    -2.753723854658985E-11   1.0392149799612658E-10   1.4408760597952086E-10
2.45E-5                   1.2417738885412782E-11   -1.1866228974185502E-11  -7.18839968774181E-11    -5.99008389133182E-11    -6.055544241481567E-11   -6.269229859279225E-11   -3.555424402111923E-11   2.1176269358330192E-13   -2.704465978900134E-11   1.5808062728501004E-10   2.0885714537727707E-10
2.4999999999999998E-5     2.488727736483848E-12    -3.9030160076486485E-11  -1.1243397846786403E-10  -1.2213116382532403E-10  -9.279706170857534E-11   -1.0003399327702511E-10  -6.801858024500391E-11   -3.529753425639883E-11   -2.3214352309710155E-11  2.2151978930729085E-10   2.844002797614935E-10
2.55E-5                   -8.773253916252447E-12   -7.240954009291741E-11   -1.6553821322922273E-10  -1.8945553238713693E-10  -1.3319308512898778E-10  -1.4127701430739238E-10  -1.0962798116429458E-10  -7.975205411445348E-11   -1.6535138031304056E-11  2.927000270290409E-10    3.6611449413072614E-10
2.6E-5                    -2.1928589752852316E-11  -1.1145786898000847E-10  -2.310480152140771E-10   -2.5226869266592206E-10  -1.776408366221629E-10   -1.8593474687821932E-10  -1.6135655356193747E-10  -1.3180609943754516E-10  -7.260738244270792E-12   3.695108117805E-10       4.48489070887597E-10
2.65E-5                   -3.718080776060709E-11   -1.5373856023512128E-10  -3.0492141759754333E-10  -3.054042937202307E-10   -2.1977910049928072E-10  -2.3348340411540243E-10  -2.215310248666242E-10   -1.8963733134120254E-10  4.854389951522988E-12    4.482944082617099E-10    5.260970440201632E-10
2.7E-5                    -5.359043094495796E-11   -1.9577841143247741E-10  -3.8108675045320975E-10  -3.4788391853481837E-10  -2.572704741534077E-10   -2.845401532137927E-10   -2.881501437861908E-10   -2.548006321700489E-10   1.9965376256183283E-11   5.240778669993762E-10    5.94703985469742E-10
2.7499999999999998E-5     -6.999927624131284E-11   -2.3595043708445887E-10  -4.5312232773724565E-10  -3.8350575165756515E-10  -2.931253529894757E-10   -3.41773044280399E-10    -3.605856085320417E-10   -3.316490281686337E-10   3.7761844746010166E-11   5.927854136494146E-10    6.522686127147589E-10
2.8E-5                    -8.684598428178869E-11   -2.7636484187361555E-10  -5.160669849990537E-10   -4.201550805133288E-10   -3.3130261673759043E-10  -4.0813165087025927E-10  -4.3929700088150497E-10  -4.221896508592671E-10   5.8012907294557646E-11   6.523335463346831E-10    6.980679859006266E-10
2.8499999999999998E-5     -1.0680431950061E-10     -3.2036633770235575E-10  -5.68578899237501E-10    -4.64162849983971E-10    -3.7272232109819567E-10  -4.821302716160252E-10   -5.238997646162228E-10   -5.225960417365733E-10   8.116118394001699E-11    7.003616355481961E-10    7.292442306283275E-10
2.9E-5                    -1.3299806840552897E-10  -3.6731235789793907E-10  -6.126700955738769E-10   -5.131834281220769E-10   -4.1547738406700363E-10  -5.545505503990278E-10   -6.107618987241697E-10   -6.252044265228436E-10   1.077940427684562E-10    7.313282360537804E-10    7.375975726833019E-10
2.95E-5                   -1.6561541775242368E-10  -4.107697698535872E-10   -6.491157270066939E-10   -5.552227567510416E-10   -4.564062444605818E-10   -6.116504460597791E-10   -6.919877374637853E-10   -7.225324262382702E-10   1.3740369366336526E-10   7.368742920225122E-10    7.10717638211714E-10
2.9999999999999997E-5     -1.9960692614062145E-10  -4.4290400230833107E-10  -6.724511981017436E-10   -5.749953239671802E-10   -4.905436945875948E-10   -6.435045438514161E-10   -7.572718170350507E-10   -8.081840826009528E-10   1.679616425913774E-10    7.086759754150915E-10    6.374746501710733E-10
3.05E-5                   -2.263196529954236E-10   -4.600672374833122E-10   -6.71402152000202E-10    -5.60957299946582E-10    -5.100033232069836E-10   -6.49276766758528E-10    -7.9775875483597E-10     -8.750674755761297E-10   1.967954450103879E-10    6.398177123802276E-10    5.125765796542665E-10
3.1E-5                    -2.3914301469456387E-10  -4.630131723296673E-10   -6.342734360748156E-10   -5.076895001550328E-10   -5.05681559667492E-10    -6.335195229834476E-10   -8.086683186491994E-10   -9.151307940677946E-10   2.2163016886236516E-10   5.237125523404037E-10    3.3552047754381095E-10
3.15E-5                   -2.3879342296416496E-10  -4.520662741972727E-10   -5.530745069271213E-10   -4.1461808572704333E-10  -4.7106492621309E-10     -5.975401434883317E-10   -7.880725174029482E-10   -9.213237399940903E-10   2.4074543551903924E-10   3.53622861461574E-10     1.0590533705521777E-10
3.2E-5                    -2.325406153323638E-10   -4.233856552425008E-10   -4.2326069397346704E-10  -2.8381844343274426E-10  -4.041600543364686E-10   -5.353150191217238E-10   -7.329387165913829E-10   -8.880665305846401E-10   2.525881827568694E-10    1.2460495550663407E-10   -1.7885442125743137E-10
3.25E-5                   -2.2676411416118016E-10  -3.6995331259927586E-10  -2.4219505848009555E-10  -1.1735312151490473E-10  -3.059303227120317E-10   -4.3746685120657405E-10  -6.366254064444364E-10   -8.088380690411079E-10   2.556748566021031E-10    -1.64482741693524E-10    -5.213004969542752E-10
3.2999999999999996E-5     -2.194900421957905E-10   -2.848615374855368E-10   -9.154990352348987E-12   8.542344461618854E-11    -1.7759667424000492E-10  -2.974658869502525E-10   -4.905792727429509E-10   -6.748556599371098E-10   2.487174902949035E-10    -5.11752708417648E-10    -9.209253553074638E-10
3.35E-5                   -2.0048528524254123E-10  -1.630571353294453E-10   2.7477955566621937E-10   3.2815692663480206E-10   -1.9298703961230318E-11  -1.1326334719177535E-10  -2.881700462437627E-10   -4.779846660848715E-10   2.3033482610599498E-10   -9.147424657013912E-10   -1.3735133438095207E-9
3.4E-5                    -1.5899110672743113E-10  -1.0208308652153188E-12  6.08588127246234E-10     6.139486107626743E-10    1.699593665005381E-10    1.1539829631437128E-10   -2.6307518457713923E-11  -2.1460658755472792E-10  1.9847715186528033E-10   -1.3708443856486622E-9   -1.8710241528323583E-9
3.45E-5                   -9.136978683271631E-11   2.03677489434841E-10     9.924465272782657E-10    9.404385366414736E-10    3.919752926876028E-10    3.891195648465146E-10    2.961208444086156E-10    1.1479927648239642E-10   1.5050017523756162E-10   -1.874371228900922E-9    -2.399551207258373E-9
3.5E-5                    -1.6041289263260415E-12  4.517061340002047E-10    1.4253334507890862E-9    1.2976853378929297E-9    6.481117599879182E-10    7.081099924544421E-10    6.794928947428765E-10    5.096974682731667E-10    8.415056950206808E-11    -2.4130560141745735E-9   -2.9374277418244897E-9
3.5499999999999996E-5     1.0450367657031048E-10   7.4060432665977E-10      1.9008026964719787E-9    1.6704558015759064E-9    9.363566096006366E-10    1.070302390404773E-9     1.1216189562754102E-9    9.714278626007808E-10    -1.6418305240028836E-12  -2.967409689098933E-9    -3.4574169339598187E-9
3.6E-5                    2.2471188929078533E-10   1.0638874717394548E-9    2.404923653109813E-9     2.0427406683779176E-9    1.2481119632612871E-9    1.470063873392222E-9     1.6148569862462473E-9    1.5002548067870502E-9    -1.0720204046035737E-10  -3.5129132266197018E-9   -3.932186490122786E-9
3.65E-5                   3.605695405000826E-10    1.4115196503562412E-9    2.917540127261704E-9     2.4007373106069263E-9    1.5679828445261562E-9    1.8975020226795995E-9    2.1461603849238145E-9    2.0907812170900826E-9    -2.3305776198432214E-10  -4.0221098793739725E-9   -4.337311731166934E-9
3.7E-5                    5.138971178932806E-10    1.7715156702485149E-9    3.4148177698760054E-9    2.732035101400985E-9     1.8780107674504645E-9    2.3384899928185377E-9    2.700350930789588E-9     2.7296865044174787E-9    -3.796134154903209E-10   -4.46496061878301E-9     -4.648362302173218E-9
3.75E-5                   6.837211001076366E-10    2.1311799370645182E-9    3.871189400481585E-9     3.021932277938476E-9     2.1633703435036893E-9    2.7760472301104026E-9    3.262392601484906E-9     3.3959998262036762E-9    -5.452025876666697E-10   -4.809066482331724E-9    -4.8358494317499045E-9
3.7999999999999995E-5     8.65447680469257E-10     2.4767733778104112E-9    4.260161327872638E-9     3.250141184392704E-9     2.4144749157275417E-9    3.1922085719819687E-9    3.815221669518036E-9     4.062425692910943E-9     -7.244934311481337E-10   -5.021549091247492E-9    -4.864531068793437E-9
3.85E-5                   1.0511478906595423E-9    2.7923210787987757E-9    4.553917116175963E-9     3.3906284122238077E-9    2.6237819313235344E-9    3.568285785994697E-9     4.335456637034299E-9     4.69745509505324E-9      -9.092731310327057E-10   -5.0713684633535285E-9   -4.698239975225719E-9
3.9E-5                    1.2302685030074638E-9    3.0592624243392787E-9    4.7223933332964545E-9    3.414742254475753E-9     2.780978152203749E-9     3.883445345325286E-9     4.792953080179216E-9     5.267921905982026E-9     -1.0910375684457296E-9   -4.929666474493911E-9    -4.305373726427622E-9
3.95E-5                   1.3916035278191834E-9    3.257177060660736E-9     4.733564591905769E-9     3.2957851458978632E-9    2.8713601082925265E-9    4.114273775889501E-9     5.155977334947917E-9     5.740079410425817E-9     -1.262666001407688E-9    -4.568454297199646E-9    -3.661198868718477E-9
3.9999999999999996E-5     1.5260002874154553E-9    3.364273955166066E-9     4.5558002028679026E-9    3.013039742232115E-9     2.8780761781577108E-9    4.236931032321652E-9     5.3959888686040535E-9    6.077980474155021E-9     -1.4173839878612248E-9   -3.960442877914579E-9    -2.7483958081443492E-9
4.0499999999999995E-5     1.6266667191794753E-9    3.3573641307336216E-9    4.1608038250755505E-9    2.5539194993333496E-9    2.7851537828418066E-9    4.229760240266721E-9     5.485354770040728E-9     6.24107526276254E-9      -1.5461283149650218E-9   -3.081541167305711E-9    -1.5586785955731819E-9
4.1E-5                    1.6854425954801843E-9    3.2129137691489485E-9    3.5254168444105374E-9    1.913632909670486E-9     2.5792066506470323E-9    4.073389066731911E-9     5.39043937501857E-9      6.184457503334323E-9     -1.636097743342956E-9    -1.9148778087996177E-9   -9.495378077612563E-11
4.15E-5                   1.6888253846914896E-9    2.9099328018655183E-9    2.632746959672048E-9     1.0930166002487696E-9    2.250541253760767E-9     3.748825975326815E-9     5.070054887509781E-9     5.863323182425569E-9     -1.6720923425853266E-9   -4.5465712139128207E-10  1.6282583532727442E-9
4.2E-5                    1.6194857744616556E-9    2.432715092871246E-9     1.4737566158682594E-9    9.667645018444563E-11    1.7943139824764438E-9    3.2369522506799706E-9    4.484150498624099E-9     5.239885753713178E-9     -1.6396099007223541E-9   1.2909114825563593E-9    3.5857718595295817E-9
4.2499999999999996E-5     1.4632962954593543E-9    1.7712777369545522E-9    4.870357097309057E-11    -1.0664391579347782E-9   1.2104640635592106E-9    2.5212818027825892E-9    3.6054407508712004E-9    4.2886037850989706E-9    -1.527208529967331E-9    3.2981212535246147E-9    5.741204964684697E-9
4.2999999999999995E-5     1.2150216172083028E-9    9.205779768291173E-10    -1.6325079931059086E-9   -2.3799949169008352E-9   5.018767219189668E-10    1.5921889278751073E-9    2.423293931336642E-9     2.9962445785156394E-9    -1.3266573084820227E-9   5.528127027113637E-9     8.04383696549401E-9
4.35E-5                   8.768433856310399E-10    -1.1856505961105758E-10  -3.549858208976249E-9    -3.816944117937292E-9    -3.265799719371643E-10   4.4952497752952405E-10   9.389453360589353E-10    1.357903101428532E-9     -1.0317346579277314E-9   7.928330968033466E-9     1.0425408396878551E-8
4.4E-5                    4.518698992723637E-10    -1.3365585222181698E-9   -5.6708942200500525E-9   -5.338249080268797E-9    -1.2652076020462108E-9   -8.974285371578312E-10   -8.392381597485832E-10   -6.252548117955607E-10   -6.377735572101743E-10   1.0432880785654928E-8    1.2800345292797377E-8
4.45E-5                   -5.998864786131317E-11   -2.7132126530008127E-9   -7.947564358601886E-9    -6.894023867122203E-9    -2.294531132794872E-9    -2.431119331161536E-9    -2.8941563576465386E-9   -2.9420258268489653E-9   -1.4300177054496029E-10  1.2961503494736198E-8    1.506989580348865E-8
4.4999999999999996E-5     -6.595700651174879E-10   -4.219025807553046E-9    -1.031491356989381E-8    -8.42557129211515E-9     -3.384000852766854E-9    -4.125863793826335E-9    -5.195101712556243E-9    -5.5628697905935335E-9   4.49318758332081E-10     1.5418422346996756E-8    1.712722247989252E-8
4.5499999999999995E-5     -1.3422257241011249E-9   -5.817490031211383E-9    -1.269238592817283E-8    -9.866866628322165E-9    -4.497383751471738E-9    -5.946582775900432E-9    -7.695730685480274E-9    -8.433169075284648E-9    1.1297676107000728E-9    1.7693992110495435E-8    1.8860615341708257E-8
4.6E-5                    -2.0936566143578306E-9   -7.465139404314352E-9    -1.4986379060031317E-8   -1.1145811830853306E-8   -5.600649581573741E-9    -7.848018330510128E-9    -1.0335467719157481E-8   -1.1472135871716048E-8   1.883395339711346E-9     1.9669744880328434E-8    2.015550908944069E-8
4.65E-5                   -2.8907396576381305E-9   -9.109544669086972E-9    -1.709349119102828E-8    -1.2186764755754325E-8   -6.665062523727844E-9    -9.77653676120094E-9     -1.304033999432718E-8    -1.4577787881926737E-8   2.6911419513473855E-9    2.1224858263732444E-8    2.0898335143030503E-8
4.7E-5                    -3.7054724433373563E-9   -1.0688668409783953E-8   -1.8904871328308612E-8   -1.2914881452748221E-8   -7.663394641342617E-9    -1.167403250547173E-8    -1.572162398960964E-8    -1.7635693642721187E-8   3.530330697833262E-9     2.2241385295105287E-8    2.098311613037632E-8
4.7499999999999996E-5     -4.508299099399499E-9    -1.213347430566033E-8    -2.03106120937591E-8     -1.3260933372452325E-8   -8.564564743700909E-9    -1.3480723197198177E-8   -1.8275381532074865E-8   -2.0526536664526203E-8   4.373348246625405E-9     2.260737876170875E-8     2.0317956911279648E-8
4.8E-5                    -5.2690389926714436E-9   -1.3371629662740718E-8   -2.1202239834626582E-8   -1.3164875189341056E-8   -9.33279319293256E-9     -1.5134281681851334E-8   -2.0586270021919704E-8   -2.3127097995558603E-8   5.18551324102641E-9      2.221940722567177E-8     1.8828744542034347E-8
4.85E-5                   -5.956423329553451E-9    -1.4329114864416823E-8   -2.147405365546823E-8    -1.2577886244964615E-8   -9.931371959047687E-9    -1.6566561651046994E-8   -2.2535008636753354E-8   -2.53049544401555E-8     5.924599550556628E-9     2.0986752975910746E-8    1.646169361853232E-8