% Model:              Untitled.mph
% Version:            COMSOL 6.0.0.405
% Date:               Jul 16 2025, 23:09
% Dimension:          1
% Nodes:              401
% Expressions:        11
% Description:        Point graph
% Time (s)                Displacement field, Y component Displacement field, Y component Displacement field, Y component Displacement field, Y component Displacement field, Y component Displacement field, Y component Displacement field, Y component Displacement field, Y component Displacement field, Y component Displacement field, Y component Displacement field, Y component
0                         -5.248987599369063E-31   8.498828950638965E-32    -5.941033367147342E-31   1.3128441471930202E-32   1.2825620158970637E-34   -3.407918161601736E-34   -4.881223767459168E-34   -2.2344736869458185E-35  -5.3816870207276865E-37  4.2773789572621646E-30   1.8451373624115947E-30
5.0E-7                    -7.642935526473337E-23   -3.364263547719205E-23   -2.4130688830375787E-22  5.306451796659157E-24    3.4566573402356766E-25   -2.0577985659785382E-25  1.7268465369540472E-26   -1.9763869317105465E-27  1.331256989392711E-29    -3.9238977729221585E-22  -2.4993411115709814E-22
1.0E-6                    9.457613262770673E-22    1.023692841527056E-22    1.4715521961884235E-21   -2.2871456135011458E-23  -4.495818867115033E-24   1.9358356383805567E-24   5.801140955221471E-25    6.319888437582519E-26    8.183432575136195E-28    -4.821586941267483E-21   2.283901854444769E-22
1.5E-6                    -3.29804078869907E-21    -1.0200289455182635E-21  -4.3023035506655204E-21  -2.894754608200683E-23   1.6780934013406893E-23   -3.879431551198232E-24   -3.279728265773908E-24   -3.190911996241796E-25   -5.14410685159788E-27    3.1447976740324474E-20   4.511991494627036E-21
2.0E-6                    3.2996254699999924E-21   1.8137904419975774E-21   1.0959552551758249E-20   1.2465801864600407E-22   1.2840240858329E-24      -9.879458286372149E-24   7.775134390306194E-24    5.777966604494578E-25    1.3210707834769707E-26   -8.920605988583557E-20   -1.6487186026630944E-20
2.4999999999999998E-6     2.3338305776349323E-20   5.318098852392283E-21    -1.3193663770671784E-20  2.5302966592595097E-22   -1.155426807141958E-22   4.034814816996512E-23    -5.3739770838553174E-24  9.018162255796161E-26    -3.0726526898973523E-27  1.8259218059404755E-19   7.461750669574065E-21
3.0E-6                    -5.774667511059126E-20   -1.0533988073192625E-21  -2.981027954963312E-20   2.1777341250570124E-22   3.707609720525624E-23    2.9845418131483365E-23   -1.3203673782820575E-23  -1.7069176280511463E-24  -6.409430924734742E-26   -1.3997269836725553E-19  -2.850555166565475E-20
3.5E-6                    -6.314735027060406E-20   -2.275843268801585E-20   6.677917918804561E-20    -3.855228653272282E-21   5.458816569741921E-22    -2.1141161389449864E-22  2.9697160545717067E-23   4.114406409401512E-24    1.1181593680810613E-25   -1.1328145195435916E-18  7.922722257887683E-20
4.0E-6                    1.0672786072038463E-19   -1.1545420786507425E-19  4.377018069039627E-20    -5.8465108177339974E-21  1.4918945862375642E-22   -1.4107023094312586E-22  -5.059094694479418E-24   -2.1657152370951222E-24  1.6236915100444195E-25   2.683322945994531E-18    4.733704655802555E-19
4.5E-6                    1.4139948474247264E-19   -4.1722926812885096E-20  1.0630875147722217E-19   2.1215177420517318E-20   -2.322799637913117E-21   7.242088272267562E-22    -3.834674724382464E-23   -2.4361926257924356E-23  -7.2249749425415325E-25  3.3074226034449217E-18   -3.765734441881615E-19
4.9999999999999996E-6     7.146643066528147E-19    7.115199448972236E-19    -1.141713116187634E-19   5.585051659735462E-20    -3.326155159608859E-21   1.1535067761187043E-21   -4.04326996661811E-23    9.605902635784247E-24    -1.5162349008128554E-26  -9.807842844867029E-18   -2.1806134142791405E-18
5.5E-6                    -1.1788053140087248E-18  1.4184572511864241E-18   -1.5395478523799537E-18  -2.4073065976069025E-20  5.4674321075744525E-21   -1.494381974418353E-21   9.94960230626433E-23     8.337754461025717E-23    3.430748320270058E-24    -7.173023832841894E-18   -4.413221297458378E-19
6.0E-6                    -7.19735948300796E-18    -9.39747388416168E-19    -6.398858264544119E-19   -3.24750428004664E-19    2.4570727154654478E-20   -7.49396654572159E-21    4.965620667605272E-22    1.2926543728865635E-22   -1.9537727824937955E-24  1.9602292565700984E-17   8.333849731657497E-18
6.5E-6                    4.00672520390062E-18     -8.178644929361973E-18   5.924369088567491E-18    -4.403264191762783E-19   2.0238304326068108E-20   -3.580106219723556E-21   -4.682954956868981E-22   9.209994528155847E-23    -1.403628043754952E-23   8.421160617017335E-18    1.1589276159442039E-17
7.0E-6                    3.5991314501139547E-17   -9.686857581709695E-18   7.985378747438935E-18    8.545099029386675E-19    -7.380754891530013E-20   3.169940532982679E-20    -2.5225235624154303E-21  -1.0815600650466159E-21  5.672101344466993E-24    -2.0785238316664864E-17  -1.708095574378855E-17
7.499999999999999E-6      7.041748659565655E-18    1.7256531519774102E-17   -9.999143136943655E-18   3.2351014812001E-18      -2.410070251630732E-19   5.60847723965922E-20     1.362809495676626E-21    -3.0238656319054335E-21  5.1451092430221835E-23   4.437537342966932E-17    -4.381941074936945E-17
8.0E-6                    -1.1924553392820847E-16  6.018433072558399E-17    -3.6477366592556404E-17  1.1832824258721541E-18   -2.2137325382270997E-19  -7.126964279443161E-20   8.249106587959035E-21    2.902140856542059E-21    3.161707620310257E-23    8.68148531571847E-17     1.4436385370501002E-17
8.5E-6                    -1.3235475624569492E-16  2.7751236799125035E-17   -1.7108125543750267E-17  -1.0080503368315053E-17  5.890578824642731E-19    -2.9337512164917413E-19  -9.497949804788453E-21   1.8349610741570876E-20   -1.3066480755518142E-22  -1.9108980383210898E-16  1.0436026915569135E-16
9.0E-6                    1.5140429268712402E-16   -1.4938271560831293E-16  7.883061709501287E-17    -1.7198947906371606E-17  2.608989594972167E-18    -4.983586461437638E-20   -2.7524508010512975E-20  4.0739427909263795E-21   -3.881599869619833E-22   -4.641452377859457E-16   1.6673086485726286E-16
9.499999999999999E-6      3.4200050534238436E-16   -3.0329761851609313E-16  1.3284184328421404E-16   7.149862631214867E-18    2.867909591730956E-18    7.700034612804618E-19    7.302533647532559E-20    -6.39069481181243E-20    -1.316220409512499E-22   4.932886066301488E-16    3.336131887336533E-16
9.999999999999999E-6      -9.911986910038632E-17   -5.0777411351798026E-17  -5.117905900818496E-17   5.212023361858865E-17    -7.563024372659346E-18   5.925483980864111E-19    1.4266621367850118E-19   -5.862095704423425E-20   1.7825123559729746E-21   2.581088002721167E-15    1.5069121021852092E-16
1.05E-5                   -6.527428437201263E-16   6.772581237682334E-16    -3.742922973653215E-16   4.32293015386801E-17     -2.828108148927954E-17   -8.50402276947398E-19    -3.615920190820947E-19   1.5052623728419478E-19   3.4773399072551295E-21   1.6242958159070904E-15   -1.2604257346236629E-15
1.1E-5                    -4.117697687018502E-16   1.0537535326795652E-15   -3.234973489870489E-16   -5.458340335301671E-17   -1.7359773039742983E-17  1.0466950425603148E-18   -8.199910056793578E-19   2.3263527257567415E-19   -3.003046571800682E-21   -5.333593405323751E-15   -1.8801559439896953E-15
1.15E-5                   -4.845694105445793E-16   -2.0752098999102522E-16  4.1706566113337227E-16   -1.36411448196467E-16    8.249162675274702E-17    3.9637644585568E-18      1.1407510683570596E-18   -3.293109629785785E-19   -1.8579815498004106E-20  -7.541770288485884E-15   3.363501161412084E-15
1.2E-5                    -2.733257512976286E-15   -3.0311302000069735E-15  1.1715407434461657E-15   -1.0912858112805568E-16  1.9165271202423333E-16   -1.522550837435484E-17   3.889976054615873E-18    -7.690712294898642E-19   -1.3783524214946322E-20  1.165545098825172E-14    1.3081950115105145E-14
1.2499999999999999E-5     -4.818161003032649E-15   -4.462025112272248E-15   2.450167305047996E-16    -6.784620842758788E-17   6.537740155813357E-18    -5.4031838058344275E-17  -1.835776154913514E-18   8.572849084738522E-19    4.702240124224197E-20    3.638392160790453E-14    1.3351628165549619E-14
1.3E-5                    -2.2390356232495675E-15  -6.920720627648774E-16   -3.4568383575165293E-15  1.1910309473095447E-17   -6.21379388136374E-16    -4.046480898489918E-18   -1.5393134269222786E-17  3.3145983785964175E-18   1.0741570009631052E-19   1.778921888539916E-14    -4.894369493240454E-15
1.35E-5                   1.8140829546742975E-16   6.339105791828438E-15    -7.026595594008651E-15   5.337134553878686E-16    -9.93418824945849E-16    2.2945299568360666E-16   -7.894287162402338E-18   -4.449382503871954E-19   -3.511631164779821E-21   -3.435279456796601E-14   -1.814744571921607E-14
1.4E-5                    -1.4463434650094263E-14  4.878441483007098E-15    -3.002052564783686E-15   1.2177054967252043E-15   2.049425018164356E-16    3.4458213068561275E-16   3.580904128675723E-17    -1.2687820037790436E-17  -3.1281984007935627E-19  -9.500859925321914E-16   2.1725143635933778E-14
1.45E-5                   -5.760778798748241E-14   -1.5845867774013788E-14  1.0604124439125389E-14   -1.889453665163433E-16   2.864530504468122E-15    -3.2048891789789794E-16  4.562226406441913E-17    -1.4082965076107918E-17  -3.916303447584143E-19   1.8669380953897097E-13   1.2945247736018035E-13
1.4999999999999999E-5     -1.1919584262217565E-13  -4.49997804039175E-14    1.6271358847367697E-14   -5.588112971884544E-15   3.597843006828038E-15    -1.5957372759140554E-15  -6.298445979114852E-17   2.2731356417243884E-17   2.743209520241601E-19    3.689353299319245E-13    2.4739944022274487E-13
1.55E-5                   -1.8229313633246583E-13  -5.5188433333591456E-14  -1.421177576302952E-14   -1.0794275705858831E-14  -1.876168947554303E-15   -1.3807929456030052E-15  -1.6642040053870096E-16  7.34430207799153E-17     1.1797165283629839E-18   3.6076246746056303E-13   3.1320462154669746E-13
1.6E-5                    -2.587009422451352E-13   -5.160344307855365E-14   -8.050816032998553E-14   -5.570782945197919E-15   -1.1895333987511556E-14  2.3339211729305083E-15   2.659325617745937E-17    3.386664160605626E-17    7.1525724077295E-19      3.722091922178636E-13    3.8737069855154737E-13
1.6499999999999998E-5     -4.0660696337535725E-13  -1.0307209771839065E-13  -1.3321607858186623E-13  1.2638320120901322E-14   -1.533965059322754E-14   6.559318316098159E-15    3.9270458715263197E-16   -1.585367051958237E-16   -1.4570601037498188E-18  9.096490821293798E-13    6.598522502447973E-13
1.7E-5                    -7.242480632853265E-13   -2.736285208603059E-13   -1.2593949220174158E-13  2.2253853567925922E-14   -7.967075350919007E-16   2.7559229077251014E-15   7.576260149257533E-17    -3.1617385862034017E-16  -2.598612564765686E-18   2.1049992034336865E-12   1.299234930905251E-12
1.75E-5                   -1.3666490399867086E-12  -5.21064760841455E-13    -1.009374626590885E-13   -1.489546149950511E-14   2.4605283038319965E-14   -1.2709804890379774E-14  -1.3181375153956092E-15  -5.1205697755424517E-17  -7.730392432862506E-19   3.612227971906187E-12    2.422359693383161E-12
1.8E-5                    -2.6055612783816638E-12  -7.65537403375537E-13    -1.9473012954246545E-13  -1.1270950607757993E-13  2.7477971801889217E-14   -2.5700508322349048E-14  -1.9817137816044722E-15  6.787359006351583E-16    -5.31599116339022E-19    5.6935223401995684E-12   4.395097593482959E-12
1.85E-5                   -4.852710326736323E-12   -1.1604342403209536E-12  -5.284283211063295E-13   -2.2293639116219137E-13  -2.688712009250063E-14   -1.163411212364798E-14   6.45807904824038E-16     1.0342702204650831E-15   -6.651764659743326E-18   1.0071106499697216E-11   8.110191241600702E-12
1.8999999999999998E-5     -8.555443496913659E-12   -2.2412849499515065E-12  -1.1086458453962497E-12  -2.6040391842897953E-13  -1.2722808867371745E-13  2.992956237722027E-14    4.436357910415698E-15    -1.4309132938937875E-16  -7.368009998514984E-18   1.876809564938469E-11    1.4621695024597663E-11
1.95E-5                   -1.4021771575196634E-11  -4.6385660431472665E-12  -1.897305695959965E-12   -2.0669557109895717E-13  -2.014495457129896E-13   4.946598165355483E-14    8.690598050247499E-16    -2.5216779327669402E-15  1.8147555633122814E-17   3.179132607038944E-11    2.4178159835682198E-11
1.9999999999999998E-5     -2.1315783423029822E-11  -8.581596859535284E-12   -3.0371642378644865E-12  -2.135151816893343E-13   -1.8532990576228206E-13  -1.6882020952792814E-14  -1.4748655545455212E-14  -3.3490942669060794E-15  4.5342750565455674E-17   4.65493924973695E-11     3.559578851298861E-11
2.05E-5                   -3.017836211636646E-11   -1.3798366829139853E-11  -5.001974725098348E-12   -5.805921914025633E-13   -1.3638845961805065E-13  -1.5949326682716576E-13  -3.0346101142899186E-14  -4.264320016004064E-17   -2.764159002179686E-17   5.988720750606972E-11    4.6784961687027543E-11
2.1E-5                    -3.975484229241285E-11   -1.995689699750592E-11   -8.408440531347036E-12   -1.578448141538587E-12   -2.5894087485356697E-13  -2.6084299306172155E-13  -2.5335461368552665E-14  5.121799483826227E-15    -2.611503713207547E-16   7.003837274594128E-11    5.600510948173932E-11
2.1499999999999997E-5     -4.8244026603827104E-11  -2.6993659008299705E-11  -1.3493282993783336E-11  -3.2737218974236476E-12  -7.622168323580834E-13   -2.1071182079014855E-13  -3.2640697178814843E-15  4.760719109866501E-15    -4.496855514182875E-16   7.598211809434443E-11    6.247022835755538E-11
2.2E-5                    -5.316245699846342E-11   -3.470814885779759E-11   -1.9660562867542507E-11  -5.566034884120597E-12   -1.6838516720480657E-12  -9.212250322729376E-14   -1.0263106520167856E-14  -5.728674972462391E-15   -1.8665220605916657E-16  7.564758372690918E-11    6.556179881567009E-11
2.2499999999999998E-5     -5.264620097957023E-11   -4.19956485870481E-11    -2.5604105340965107E-11  -8.405142426897636E-12   -2.9101033278593204E-12  -2.0294248838278055E-13  -1.0093849632819528E-13  -2.030311775583541E-14   4.3909101430763736E-16   6.629865447668342E-11    6.366455647840868E-11
2.3E-5                    -4.68152049297591E-11    -4.674041691268661E-11   -3.0018672327509645E-11  -1.186796281775959E-11   -4.3965223704059105E-12  -8.084261474979399E-13   -2.7643439371588897E-13  -2.7613767921931884E-14  1.4512323309799075E-16   4.723635990702472E-11    5.443072474748886E-11
2.35E-5                   -3.746330965252711E-11   -4.6758045990595485E-11  -3.2251957018625565E-11  -1.589814089724926E-11   -6.282939146962746E-12   -1.869956917104019E-12   -4.713261413785068E-13   -2.7297912715388806E-14  -2.6674377626269694E-15  2.1222150392848852E-11   3.670630159376508E-11
2.4E-5                    -2.592550708257112E-11   -4.103783741588969E-11   -3.226831486181603E-11   -2.0015575975012358E-11  -8.679995412499492E-12   -3.1037060352778803E-12  -6.311799763067607E-13   -3.643952534857303E-14   -7.296111786349274E-15   -7.778437059638561E-12   1.1963624200216573E-11
2.45E-5                   -1.1353647333781087E-11  -3.0246281884949E-11     -3.0108513608105764E-11  -2.347129404463329E-11   -1.1356418230085852E-11  -4.336734463436096E-12   -8.306251657895099E-13   -7.594353698337995E-14   -9.922637374802117E-15   -3.839987292266476E-11   -1.692413326905385E-11
2.4999999999999998E-5     8.66637634334544E-12     -1.6131143099947045E-11  -2.5606001746790394E-11  -2.5739371178450645E-11  -1.3750053814699702E-11  -5.70123472454701E-12    -1.3225368137094573E-12  -1.5732113159355249E-13  -8.632536462907315E-15   -7.32785400753413E-11    -4.87496245898465E-11
2.55E-5                   3.6190810051852737E-11   -2.296105621315505E-13   -1.8620340811356488E-11  -2.6666673035417074E-11  -1.532956453572964E-11   -7.37786041748748E-12    -2.4293442973955644E-12  -2.912834507194739E-13   -1.0891534353108932E-14  -1.1691706971345915E-10  -8.559098546540094E-11
2.6E-5                    7.209227545304648E-11    1.735187194929439E-11    -9.158164310852961E-12   -2.603682269759288E-11   -1.5889909987259072E-11  -9.207854671394061E-12   -4.2891880965113015E-12  -5.03492699739661E-13    -3.241010260018779E-14   -1.7237136274451355E-10  -1.310838407014655E-10
2.65E-5                   1.1650850187095586E-10   3.831202156905221E-11    3.1635721574933638E-12   -2.325401565807622E-11   -1.5506237509408474E-11  -1.0691337051555334E-11  -6.6218614385927995E-12  -8.350799209027041E-13   -8.344124627051735E-14   -2.395940624535239E-10   -1.8719671589883276E-10
2.7E-5                    1.687535007645219E-10    6.538126343610634E-11    1.976133243547747E-11    -1.776051595840463E-11   -1.4327275586011133E-11  -1.1371830959617903E-11  -8.754473588198874E-12   -1.3491407050808455E-12  -1.579682563157249E-13   -3.1619523169549356E-10  -2.528378812428881E-10
2.7499999999999998E-5     2.2652618814567035E-10   1.0095758325432562E-10   4.2684690356260015E-11   -9.54100180657898E-12    -1.2438113070801614E-11  -1.1117729781552603E-11  -9.98232360121096E-12    -2.1671998495618994E-12  -2.4558504892416294E-13  -3.992042505209686E-10   -3.251448574043988E-10
2.8E-5                    2.8645318040933263E-10   1.460734404052326E-10    7.296719863344913E-11    1.4015225415471301E-12   -9.695267398451453E-12   -1.0023363555868784E-11  -1.0012372347697514E-11  -3.469535010537115E-12   -3.607590127874611E-13   -4.857805518902971E-10   -4.0126474392587223E-10
2.8499999999999998E-5     3.463453316465006E-10    1.9992857956677693E-10   1.0911986623293823E-10   1.621973639166505E-11    -5.442206580133065E-12   -8.16536030408852E-12    -9.105889378168886E-12   -5.355316884686303E-12   -5.604651838257357E-13   -5.722317654187559E-10   -4.785616462041548E-10
2.9E-5                    4.063061497530359E-10    2.595390064653622E-10    1.475047957586122E-10    3.714485508456451E-11    1.547412806996129E-12    -5.502083254001286E-12   -7.801235049044117E-12   -7.623462823462132E-12   -9.34827490974066E-13    -6.530070977009354E-10   -5.537224025711878E-10
2.95E-5                   4.666406342691677E-10    3.196609531747689E-10    1.8470607503624508E-10   6.534474361400166E-11    1.2477787655278728E-11   -1.873986754937893E-12   -6.457452435001432E-12   -9.737140581174095E-12   -1.5836803022234404E-12  -7.21657059700442E-10    -6.224733012318699E-10
2.9999999999999997E-5     5.247996391549578E-10    3.7413496938904553E-10   2.1988364209819706E-10   9.875691901205975E-11    2.7560684400480402E-11   3.0184063565890023E-12   -4.919721936257666E-12   -1.1130687880263027E-11  -2.584504277534473E-12   -7.729635109319893E-10   -6.802313865967082E-10
3.05E-5                   5.75036982775208E-10     4.189032733036138E-10    2.547728339843319E-10    1.3272119305839946E-10   4.559004481643877E-11    9.570701365976386E-12    -2.4461050214063974E-12  -1.1623560932055047E-11  -3.933581813972397E-12   -8.031897475706039E-10   -7.22449432686931E-10
3.1E-5                    6.109084077059858E-10    4.5437006959837693E-10   2.911440791217139E-10    1.6336663964072958E-10   6.464719579797851E-11    1.8075935996250407E-11   2.0302144394321697E-12   -1.1502995237038166E-11  -5.477080116814145E-12   -8.076608980748357E-10   -7.439741732818806E-10
3.15E-5                   6.273779444678003E-10    4.839960313504877E-10    3.280774329064099E-10    1.9047079981290946E-10   8.344452936634569E-11    2.853056890938718E-11    9.273379090919553E-12    -1.11423147458335E-11    -6.924066857091511E-12   -7.790453395500055E-10   -7.383914096483269E-10
3.2E-5                    6.205111482335026E-10    5.093027632784998E-10    3.615527297892379E-10    2.1693225017162394E-10   1.0215008469105482E-10   4.062783738484503E-11    1.9046881062667892E-11   -1.0500563722077239E-11  -8.008347931725312E-12   -7.092978804153981E-10   -6.985943037242072E-10
3.25E-5                   5.861045571740147E-10    5.257360513248192E-10    3.864199286458955E-10    2.4552554177621327E-10   1.2195298421900495E-10   5.3878222865119355E-11   2.999566587620134E-11    -8.942366218530162E-12   -8.690282095736E-12      -5.931059276154841E-10   -6.183348237499191E-10
3.2999999999999996E-5     5.193595567571036E-10    5.236677993914592E-10    3.9857017508372743E-10   2.760197178863094E-10    1.4370047026449796E-10   6.77515786413069E-11     4.046003463269373E-11    -5.482257822526378E-12   -9.16086702396589E-12    -4.282797813100891E-10   -4.932897066714182E-10
3.35E-5                   4.15604914875701E-10     4.936080341731275E-10    3.954487611390779E-10    3.047471482664757E-10    1.6671326216905573E-10   8.188623722469296E-11    4.9641767137617303E-11   7.592170669268307E-13    -9.557286641917846E-12   -2.1266856284161505E-10  -3.2070422928476144E-10
3.4E-5                    2.707373773120385E-10    4.303290133504894E-10    3.7512967067151877E-10   3.262695726897829E-10    1.8873159440954555E-10   9.624925972050893E-11    5.8041189610751806E-11   1.0138619195665219E-11   -9.627112316424626E-12   5.8053136777097744E-11   -9.827293240675883E-11
3.45E-5                   8.119976004128533E-11    3.3232150427011266E-10   3.354169355557229E-10    3.356476790472585E-10    2.0697915546931762E-10   1.1081469513237801E-10   6.67698335194811E-11     2.2289193545507462E-11   -8.708375026469299E-12   3.886260770561009E-10    1.7625847768509429E-10
3.5E-5                    -1.553847471564796E-10   1.9854876963605475E-10   2.7380839311997754E-10   3.3009374030670927E-10   2.19389051512027E-10     1.2472700323129353E-10   7.648825806225598E-11    3.6271824508117186E-11   -6.120156687774866E-12   7.803008126808832E-10    5.040959098741697E-10
3.5499999999999996E-5     -4.387240250308731E-10   2.6938769533291583E-11   1.879356898301563E-10    3.0918443620271867E-10   2.2499495846858993E-10   1.3592167423483004E-10   8.695716917193677E-11    5.1061138988424254E-11   -1.6405237073357209E-12  1.2284869778076725E-9    8.838024087571578E-10
3.6E-5                    -7.65026967418386E-10    -1.840613378355275E-10   7.577240311524593E-11    2.733335381991556E-10    2.2334591683480298E-10   1.421750934354915E-10    9.731903763773586E-11    6.605304471908657E-11    4.371930030581512E-12    1.7232438901189313E-9    1.3103613943379732E-9
3.65E-5                   -1.1278562920152085E-9   -4.3352042305765393E-10  -6.448301798076729E-11   2.215572955495686E-10    2.1360912105397752E-10   1.4283381521368254E-10   1.0643169186270444E-10   8.117541162887095E-11    1.1347286543484839E-11   2.251208482951546E-9     1.7751816420298319E-9
3.7E-5                    -1.5194219555601976E-9   -7.180615354725119E-10   -2.3432283595518396E-10  1.5070830794784274E-10   1.9404754429502133E-10   1.3907585557750787E-10   1.1281029510053908E-10   9.652658350547474E-11    1.905993089097105E-11    2.7968802743535555E-9    2.2662697631268693E-9
3.75E-5                   -1.9304913051517826E-9   -1.033051190188252E-9    -4.3417053853826705E-10  5.729494353083782E-11    1.6211539804162566E-10   1.3189442418047046E-10   1.1452899534935129E-10   1.1192090937357326E-10   2.7899747560368402E-11   3.3418961980075265E-9    2.7679588615261428E-9
3.7999999999999995E-5     -2.349150208263875E-9    -1.372653702702772E-9    -6.621233535863672E-10   -5.987989025182027E-11   1.151533547434012E-10    1.199231055560693E-10    1.0963517640685569E-10   1.267334798433358E-10    3.8622493613988144E-11   3.862765960180935E-9     3.2605374675756508E-9
3.85E-5                   -2.7601320237342953E-9   -1.728375569596504E-9    -9.12985768504064E-10    -1.9934577937880443E-10  5.1505968917221856E-11   9.98388024847557E-11     9.694931541456903E-11    1.4002735469906108E-10   5.176416112679297E-11    4.329795287574397E-9     3.7204822754997816E-9
3.9E-5                    -3.145203947728255E-9    -2.0878788282188146E-9   -1.1783200713593423E-9   -3.594916634169288E-10   -2.8560582244651813E-11  6.910931226442047E-11    7.646780928741613E-11    1.5068358048875692E-10   6.71640700195879E-11     4.709630971999601E-9     4.121401824874384E-9
3.95E-5                   -3.483510944571479E-9    -2.4354932191502966E-9   -1.4475264227834707E-9   -5.409479496604264E-10   -1.2304680623818817E-10  2.7961363765101122E-11   4.886148015228921E-11    1.5741469307277868E-10   8.393615498711821E-11    4.969941317533849E-9     4.4351878481721864E-9
3.9999999999999996E-5     -3.751490694951996E-9    -2.75389936867563E-9     -1.709299816325893E-9    -7.454987320214254E-10   -2.296847304763713E-10   -2.1544032089886436E-11  1.452394503604551E-11    1.587652780951977E-10    1.0085739448788579E-10   5.0818300055133424E-9    4.632988426249986E-9
4.0499999999999995E-5     -3.923514227904946E-9    -3.025397892941744E-9    -1.952705896659227E-9    -9.719837229185093E-10   -3.4747312436519255E-10  -7.791299421806364E-11   -2.6840381192670913E-11  1.531454557068695E-10    1.168330964561609E-10    5.018271308411117E-9     4.686121837620356E-9
4.1E-5                    -3.973918509951505E-9    -3.2319490510334285E-9   -2.1673664820823968E-9   -1.2130107233066241E-9   -4.767204568810933E-10   -1.4127900001371907E-10  -7.563548671156637E-11   1.3882065812237809E-10   1.3110875099021074E-10   4.752023752042438E-9     4.567216547224049E-9
4.15E-5                   -3.879242952918054E-9    -3.3546408606414145E-9   -2.342571019965396E-9    -1.4552992311155416E-9   -6.174092212323883E-10   -2.124513330074003E-10   -1.3137631769624263E-10  1.139096465491203E-10    1.4316088276865992E-10   4.257070581911532E-9     4.251572302649541E-9
4.2E-5                    -3.6192279047465095E-9   -3.373799846009755E-9    -2.465744171272372E-9    -1.682724649839858E-9    -7.672904502761068E-10   -2.916214733622727E-10   -1.922611354647195E-10   7.661387777632313E-11    1.5241474520573599E-10   3.5130223049806E-9       3.7185195173868467E-9
4.2499999999999996E-5     -3.1768839962625E-9      -3.270070269990201E-9    -2.521538706386233E-9    -1.879286547571868E-9    -9.211049763504803E-10   -3.780133006899419E-10   -2.557069607108637E-10   2.5715301369137418E-11   1.579406078155698E-10    2.5085837929569525E-9    2.9527657759205154E-9
4.2999999999999995E-5     -2.5390741912743344E-9   -3.025604845170752E-9    -2.4928627785297613E-9   -2.0307448971034867E-9   -1.0710391503863814E-9   -4.700031329401948E-10   -3.1932820929521106E-10  -3.900065376449104E-11   1.5821691015066284E-10   1.2420944491419624E-9    1.945940816407468E-9
4.35E-5                   -1.6980754339236997E-9   -2.6246629266013795E-9   -2.3636720141625615E-9   -2.1255785809259996E-9   -1.2077601055721E-9      -5.648957309360205E-10   -3.815136051670945E-10   -1.1673869758732025E-10  1.5109003602189497E-10   -2.791094639657455E-10   6.982130343543031E-10
4.4E-5                    -6.531636886643959E-10   -2.054293917046738E-9    -2.1216101039827213E-9   -2.155622511338347E-9    -1.3216807596974635E-9   -6.585892884338372E-10   -4.412145464762258E-10   -2.0597671190863975E-10  1.3409135609146568E-10   -2.0380549570457503E-9   -7.806302514529781E-10
4.45E-5                   5.885491617615264E-10    -1.3063231720131795E-9   -1.7587153712871104E-9   -2.1154589329545076E-9   -1.4042779067169359E-9   -7.457355037577449E-10   -4.972301485189059E-10   -3.0459052726969514E-10  1.0506693394979861E-10   -4.0060941995847965E-9   -2.4708645414221065E-9
4.4999999999999996E-5     2.011544757702068E-9     -3.803551462441394E-10   -1.2704941856917577E-9   -1.9999916464270036E-9   -1.4487628643491403E-9   -8.202791992419756E-10   -5.475329631898381E-10   -4.09649623770896E-10    6.274353494127823E-11    -6.141274786286792E-9    -4.342506153477013E-9
4.5499999999999995E-5     3.590893965216778E-9     7.14266664285885E-10     -6.552352782182334E-10   -1.8016107138556576E-9   -1.4493809354496018E-9   -8.759454737030987E-10   -5.88958022286345E-10    -5.172240739408275E-10   6.817733723318803E-12    -8.388420433520218E-9    -6.3542387198506904E-9
4.6E-5                    5.291319220060721E-9     1.9590757873155395E-9    8.527574471336578E-11    -1.5094591182722822E-9   -1.399902321720995E-9    -9.067972526804106E-10   -6.172858483758128E-10   -6.226249937553012E-10   -6.24309782616071E-11    -1.0680378367728028E-8   -8.452265763965346E-9
4.65E-5                   7.067466898841491E-9     3.3286957636768013E-9    9.44247471757872E-10     -1.1119820174273223E-9   -1.2930264385814238E-9   -9.081019174264936E-10   -6.276702141512409E-10   -7.210543412492295E-10   -1.4455517753863754E-10  -1.2939071920727309E-8   -1.057062197968741E-8
4.7E-5                    8.865359631700158E-9     4.792199950672333E-9     1.9087112365146193E-9    -6.013809301402512E-10   -1.1216149053248113E-9   -8.769245910457854E-10   -6.153290110966725E-10   -8.08176908972935E-10    -2.3896201822835513E-10  -1.507622752067573E-8    -1.2633307656662066E-8
4.7499999999999996E-5     1.06236700591287E-8      6.312477739249154E-9     2.9589686712646647E-9    2.2797624734972075E-11   -8.806147667241051E-10   -8.115736855068174E-10   -5.762279476369445E-10   -8.801258221348319E-10   -3.44569072901556E-10    -1.6995319138125478E-8   -1.4557029696509785E-8
4.8E-5                    1.2274180737265169E-8    7.844818511546626E-9     4.06843911336455E-9      7.528317921301579E-10    -5.678480840954496E-10   -7.102181857596509E-10   -5.073819375501424E-10   -9.329222522957587E-10   -4.5944937895799146E-10  -1.8595875674749182E-8   -1.6253601816579998E-8
4.85E-5                   1.3742709181782274E-8    9.336599218750772E-9     5.204188046222574E-9     1.57444456810884E-9      -1.8342540129762166E-10  -5.701966684325243E-10   -4.067311361508301E-10   -9.618393294759806E-10   -5.807071102549461E-10   -1.9778934276555953E-8   -1.7632459982271594E-8