% Model:              Untitled.mph
% Version:            COMSOL 6.0.0.405
% Date:               Jul 15 2025, 11:43
% Dimension:          1
% Nodes:              401
% Expressions:        11
% Description:        Point graph
% Time (s)                Displacement field, Y component Displacement field, Y component Displacement field, Y component Displacement field, Y component Displacement field, Y component Displacement field, Y component Displacement field, Y component Displacement field, Y component Displacement field, Y component Displacement field, Y component Displacement field, Y component
0                         8.238778661816733E-33    3.1328704294029186E-32   5.123494806221619E-32    8.308002273120325E-32    1.009883839758089E-31    6.303169528587636E-32    8.196094738561761E-33    6.753718465156722E-32    5.913344230329407E-32    1.649867040253504E-33    4.076585791978594E-34
5.0E-7                    7.624253095239393E-24    1.5159760708224244E-23   -2.3845526851527166E-24  -2.1308957643674496E-23  -1.7557761426409528E-23  -1.072429367013445E-23   -1.5814441597196552E-24  -1.200091899085763E-23   -6.635815905108766E-24   -4.0161972173399755E-25  -1.5585137174998743E-25
1.0E-6                    -4.5074204233151934E-23  -1.3271565048587548E-22  -5.670259399720277E-23   6.077862556543023E-23    3.5524395232706834E-23   2.5223965032976876E-23   3.059868859445873E-24    2.946263488955843E-23    -1.1146230879891326E-23  1.9515147712936893E-24   7.446061512128222E-25
1.5E-6                    5.294599123152509E-23    2.1130725934446543E-22   2.5244033248198784E-22   1.3696873050767525E-22   1.746005024375725E-23    1.7317408386866446E-23   1.6756508758074853E-23   -1.562677222311493E-23   1.3737621524967297E-22   -9.436693790124394E-24   -1.4200444985015423E-24
2.0E-6                    2.680404690939108E-24    4.0013644911118384E-22   -2.04630769796062E-22    -1.3063715376028762E-21  -4.517048738899924E-22   -7.039740718592011E-22   -1.34298726837296E-22    -4.652898844781399E-22   -6.314725832372752E-22   2.9884493964559016E-23   -4.4263358405622724E-24
2.4999999999999998E-6     2.156511864742648E-22    2.544023828059634E-22    1.958050897530383E-22    1.858327489919428E-21    1.5624197177370737E-21   3.4298254196578884E-21   2.093505197614087E-22    2.2219119181449926E-21   1.5406726923909352E-21   -6.699727180108719E-24   3.6678055546103743E-23
3.0E-6                    5.995739947368809E-22    -5.572303625511938E-21   -5.159501265814258E-21   2.6026776709803185E-21   -3.5959476944911716E-21  -4.016447674713944E-21   5.631760763185725E-22    -1.558091265476524E-21   -8.403194257471268E-22   -2.7159818401289696E-22  -7.730239746997732E-23
3.5E-6                    -2.5666823773787004E-21  -4.897486290050622E-21   3.468499316904523E-21    2.8588790090883976E-21   6.94611864084549E-21     -1.6939894152659092E-20  -8.137850918524039E-22   -5.977698459624155E-21   -5.12653549694559E-21    3.99690057466274E-22     -6.69677353777866E-23
4.0E-6                    -1.0445774900928656E-20  3.443658003059852E-20    4.769777348436133E-20    -1.9345790201856483E-20  4.55202326189939E-21     4.1050001643814643E-20   -2.5407983432884857E-21  -1.3137077677244585E-20  9.551453223240755E-21    1.6496798745951738E-21   5.337894476136077E-22
4.5E-6                    9.654836517714112E-21    5.647932650842478E-20    -1.4881058882399852E-20  -6.872963189767538E-20   -5.777185492032109E-20   1.0809576675684374E-19   2.10243508994431E-21     1.6971259701176658E-20   1.6594099552718385E-20   -2.876001088823689E-21   -5.157263885234873E-22
4.9999999999999996E-6     9.536773581965446E-20    -1.0378210344804752E-19  -2.7095066245080687E-19  1.4984234430519175E-19   5.76643545870169E-20     -1.9152295561918334E-19  2.1641315538079145E-21   2.4129098464797603E-19   -4.7460409276478276E-20  -1.2360504634947117E-20  -2.775892402209695E-21
5.5E-6                    3.08580250855474E-20     -4.440668952067121E-19   -1.0631491521612617E-19  4.551441406615312E-19    1.8090185576562636E-19   -7.608839468039185E-19   -8.930862762158573E-22   8.874329050161496E-21    -1.1769653078906903E-19  1.8049920072729677E-20   5.0771442259419355E-21
6.0E-6                    -5.105643212309189E-19   -5.0902453973726504E-20  1.3474929348923442E-18   -4.676719970558317E-19   -2.292812078031611E-19   7.901667561697703E-19    1.1446151443988828E-19   -1.6481923157765265E-18  2.9861000182107806E-19   7.890632154825449E-20    1.572785087691128E-20
6.5E-6                    -6.585202245219798E-19   2.2989787955300823E-18   1.876006640785029E-18    -1.8690499084850207E-18  -1.2655936441697007E-19  4.925061859839085E-18    1.2306635005465056E-19   -1.2658555865686962E-18  7.606594361281657E-19    -9.030042430279887E-20   -2.779436897368232E-20
7.0E-6                    1.4932237408527676E-18   3.034419260734286E-18    -4.0516659244083854E-18  1.1641720220325784E-18   1.0909138929977811E-18   -1.66870001569055E-19    -8.119224023475276E-19   7.167291192999585E-18    -1.3982086552360278E-18  -4.2296174697382535E-19  -9.323585028148174E-20
7.499999999999999E-6      4.231438383124461E-18    -6.59214789906111E-18    -1.0107967124939189E-17  9.001420349032115E-18    -9.747170785882661E-20   -1.870245119380551E-17   -9.621721550094696E-19   1.261702161173281E-17    -3.790751784310605E-18   2.200657887180761E-19    6.036362212267444E-20
8.0E-6                    1.6730617099901334E-19   -1.8787966176995396E-17  1.0257572365481052E-17   7.774709186245506E-18    -1.8459730622105E-18     -3.580487272368549E-18   5.098474231722203E-18    -1.6528687581046623E-17  4.360701531514334E-18    1.7603721747148068E-18   3.730297943301541E-19
8.5E-6                    -1.2916888575124256E-17  6.890732271297267E-18    5.1950347685702643E-17   -1.2968149648419982E-17  1.4035473745008486E-17   8.024487690059223E-17    1.1688453471808203E-17   -6.511518608575476E-17   1.572815955527136E-17    2.5021936531092446E-19   4.076504954878838E-20
9.0E-6                    -1.8509389207188818E-17  8.02117902499596E-17     2.650664266694602E-17    -1.5910661206690202E-17  4.225289573333795E-17    1.2080216760931637E-16   -5.272395153324898E-18   -8.162834779347258E-18   -4.778266001772085E-18   -5.8323405738555966E-18  -1.1799597245962415E-18
9.499999999999999E-6      1.1007982235032982E-17   7.837017808569598E-17    -9.515517328479405E-17   8.81498352365122E-17     1.3389338537423816E-17   1.7471918520982E-17      -3.188233249436533E-17   2.2657418206123536E-16   -4.3654977889067155E-17  -6.300035060034282E-18   -1.555951663679096E-18
9.999999999999999E-6      7.777284022670521E-17    -1.4176879319937662E-16  -4.088389699241136E-17   3.2191514242520613E-16   -1.7678840405024855E-17  4.007596949803697E-17    3.435457606290916E-17    3.239705713969078E-16    -4.418892940910617E-18   1.0420200006285304E-17   5.081954959284017E-19
1.05E-5                   1.0740128800915894E-16   -3.3500873158632737E-16  4.984610063374238E-16    4.96736886144398E-16     3.4329142804775306E-16   6.845534122028824E-16    2.410641614808636E-16    -2.6038061418876817E-16  1.0796968348192519E-16   2.9967102782526054E-17   3.127091276222485E-18
1.1E-5                    -3.953339389567146E-17   1.8227799862394308E-16   1.0827998529605362E-15   5.032880324739692E-16    1.2338873921101285E-15   2.3360880444029905E-15   3.9631639886916933E-16   -1.1574238676910464E-15  9.001445942015189E-17    8.259483279314038E-18    2.1279682064522648E-18
1.15E-5                   -3.471892150133392E-16   1.4436141178275828E-15   9.268083289087609E-16    1.2589045419086596E-15   1.916763306486497E-15    5.533691308221082E-15    3.7826065449382956E-16   -2.385371722016945E-16   -3.320682680702475E-17   -7.409453123255426E-17   -5.451361696564645E-18
1.2E-5                    -3.448957911439367E-16   1.7550454701525008E-15   1.414109531322657E-15    4.916107492961439E-15    2.829108064938019E-15    1.0785570210640074E-14   8.248775757931595E-16    4.170928699707679E-15    2.377321886876094E-16    -1.1416803136951748E-16  -2.0946951807543602E-17
1.2499999999999999E-5     5.80960040239183E-16     -3.7349878073431293E-16  6.623463030191585E-15    1.2728204611353587E-14   8.169430235571423E-15    1.941012681814192E-14    3.234540874182024E-15    8.678353134490822E-15    8.906536897974607E-16    1.1599434759388171E-16   -3.771124220994293E-17
1.3E-5                    2.0295629132533046E-15   -1.8080032791990817E-15  1.7802674547971457E-14   2.4102357212026328E-14   2.2603740777125332E-14   4.109524781525747E-14    9.288287029977468E-15    6.4674476982288876E-15   8.800234285456642E-16    6.458471360310548E-16    -1.9754966458220917E-17
1.35E-5                   2.2243845110689937E-15   4.6443073388638585E-15   3.073109893267931E-14    4.3385576160470596E-14   4.828290184985876E-14    9.911123127992469E-14    2.0368602231716397E-14   1.9628604348762656E-15   9.084275569652484E-16    9.031545694727925E-16    9.390598353037181E-17
1.4E-5                    2.0370497988973325E-16   2.0487924777201523E-14   4.9794602580798015E-14   8.824497711481283E-14    9.59383553266498E-14     2.0987216520360313E-13   3.872166938445239E-14    2.2026635782844634E-14   5.951356351843408E-15    3.8773257978015657E-16   3.0095302846226943E-16
1.45E-5                   -1.5962958329217567E-15  3.5634824918102566E-14   1.0341951268162754E-13   1.822617614792403E-13    1.9480503215995526E-13   3.621383223377944E-13    7.388780936761345E-14    9.362159993980096E-14    1.961690586010161E-14    7.215098588861775E-16    4.761367216049883E-16
1.4999999999999999E-5     1.3327176401841845E-15   4.421310796990136E-14    2.252023722261253E-13    3.4498165501088E-13      3.814947804353147E-13    5.724245372626914E-13    1.5592093739340552E-13   2.0463567051330314E-13   3.582621528160135E-14    6.024042769107162E-15    6.649864990937944E-16
1.55E-5                   1.2061008049778165E-14   7.081576838176835E-14    4.2412086544665696E-13   6.296662380171316E-13    7.188703314303846E-13    9.667086658234995E-13    3.4116389566737953E-13   3.287390552285474E-13    4.9325288204219225E-14   1.870868065688236E-14    1.7719905636129233E-15
1.6E-5                    3.350240047117457E-14    1.6893240239462756E-13   7.26034009282039E-13     1.1866915249062298E-12   1.3788558611560374E-12   1.6586610807190972E-12   6.946537980150494E-13    5.315790720172996E-13    8.671518070824488E-14    3.64772817297679E-14     5.921362167738264E-15
1.6499999999999998E-5     7.269398674389278E-14    3.834081204218707E-13    1.2556523753595313E-12   2.209047650588494E-12    2.6391954215245054E-12   2.457011475091269E-12    1.2875488063280127E-12   9.902909783181366E-13    2.1471572480957286E-13   6.188203945011958E-14    1.5854749835095175E-14
1.7E-5                    1.3769637798745425E-13   7.268000224645819E-13    2.179081314391148E-12    3.7711538791270375E-12   4.71375723572483E-12     3.037952264361114E-12    2.2940914955638037E-12   1.7757064808604693E-12   4.908696983347872E-13    1.2095646718387876E-13   3.460747259102681E-14
1.75E-5                   2.3373245146421334E-13   1.2145618465369422E-12   3.5418162387272616E-12   5.972885257636966E-12    7.817837521481959E-12    3.983084327232007E-12    4.163189311079465E-12    2.666597637158734E-12    9.142712338864425E-13    2.6659292485318463E-13   6.82009593298273E-14
1.8E-5                    3.8261682198848967E-13   1.9384306314568735E-12   5.429525591059786E-12    9.597731401482603E-12    1.2743436239079496E-11   7.556579919834459E-12    7.626521462840335E-12    3.5359442203463954E-12   1.4950059845393013E-12   5.574665842926989E-13    1.3191010944271214E-13
1.85E-5                   6.551871665155942E-13    3.135111339748424E-12    8.545596168661873E-12    1.632061233365662E-11    2.0937347435756764E-11   1.634147824408176E-11    1.3321682049677717E-11   5.172701480971628E-12    2.453438314173638E-12    1.0517169408989632E-12   2.573416447615318E-13
1.8999999999999998E-5     1.162577109995767E-12    5.2332056247437444E-12   1.4277356619303239E-11   2.7133553703296167E-11   3.276872866136071E-11    3.007808880147312E-11    2.119810866225325E-11    9.302503506218314E-12    4.3514451241967176E-12   1.8596597703170204E-12   5.003390185745189E-13
1.95E-5                   2.0129459647297557E-12   8.820771282065371E-12    2.340069574629347E-11    3.996142688736273E-11    4.530083879616136E-11    4.421416686789712E-11    3.021202046488759E-11    1.6941427932380388E-11   7.899863407012076E-12    3.2154251212636936E-12   9.54245925965425E-13
1.9999999999999998E-5     3.356282219942468E-12    1.4417284087922025E-11   3.454248214024541E-11    4.9953132208734825E-11   5.3200228686469064E-11   5.286665353033954E-11    3.8616473862954795E-11   2.6492340161098624E-11   1.3418128555491088E-11   5.4467687393303365E-12   1.7608731831581104E-12
2.05E-5                   5.568316046361559E-12    2.2081134309008522E-11   4.467078396401177E-11    5.364423497432945E-11    5.335550603103829E-11    5.3709445932414295E-11   4.4608903688127146E-11   3.426456459486243E-11    2.028582820662406E-11    8.78508514635779E-12     3.090352980512771E-12
2.1E-5                    9.337245410115362E-12    3.1155848586529105E-11   5.1524500967393355E-11   5.23541643839913E-11     4.802033571012645E-11    4.9248181176951034E-11   4.6849714226602815E-11   3.7612904118771086E-11   2.6910590770655786E-11   1.3132296729702662E-11   5.0834602857391316E-12
2.1499999999999997E-5     1.532519928647107E-11    4.038491303268932E-11    5.4784790392889145E-11   4.9612052179822415E-11   4.181732396163269E-11    4.288988849459102E-11    4.4597318005170476E-11   3.713452187656696E-11    3.148603851355015E-11    1.797573688043921E-11    7.817879936874884E-12
2.2E-5                    2.349033071477672E-11    4.81559828676804E-11     5.418297542150231E-11    4.5201721767877024E-11   3.5710684781079245E-11   3.453194578741998E-11    3.752462646950704E-11    3.4896218855254617E-11   3.310778958634898E-11    2.2509241265740163E-11   1.134457111367534E-11
2.2499999999999998E-5     3.267157514335111E-11    5.2514258273957E-11      4.744979203623608E-11    3.400984814453682E-11    2.5270772001309265E-11   2.0728411111630207E-11   2.5412210858232897E-11   3.077881090728857E-11    3.216982406208731E-11    2.585334120647839E-11    1.5676962342960813E-11
2.3E-5                    4.0943769492056266E-11   5.119166523593913E-11    3.170767148727749E-11    1.1728699067574373E-11   4.837761636579668E-12    -1.3794632730053106E-12  7.938107813497628E-12    2.186648014370037E-11    2.931790797631469E-11    2.7266046233527144E-11   2.056320968289727E-11
2.35E-5                   4.652743010250523E-11    4.227206448181885E-11    6.74440138759389E-12     -2.0289510720511533E-11  -2.7933503192391735E-11  -3.129341564390911E-11   -1.5248132911226273E-11  5.8675098449283685E-12   2.377804268302684E-11    2.6295118798795013E-11   2.520488041029037E-11
2.4E-5                    4.847822608017263E-11    2.5302959486493797E-11   -2.4561653830290997E-11  -5.741877441682882E-11   -7.139790955994355E-11   -6.62167052260406E-11    -4.414825078327183E-11   -1.6009646035728885E-11  1.304986643264474E-11    2.2759924759830755E-11   2.8423966105247853E-11
2.45E-5                   4.660224941630656E-11    1.650032369418501E-12    -5.923601599207619E-11   -9.74181393661283E-11    -1.21579301513265E-10    -1.0408327751292304E-10  -7.797804087303897E-11   -4.060426209829669E-11   -5.100632617698298E-12   1.6454078137119456E-11   2.9373450607554795E-11
2.4999999999999998E-5     4.077590816971279E-11    -2.653154735357165E-11   -9.62244781393421E-11    -1.416217520566202E-10   -1.7359135902481788E-10  -1.4536811261670474E-10  -1.1513444474006176E-10  -6.664408865845372E-11   -3.003525647009711E-11   6.822044009079346E-12    2.797960359611612E-11
2.55E-5                   3.035662470543245E-11    -5.7602872716136744E-11  -1.352818126718697E-10   -1.9128065910215537E-10  -2.2327662133008357E-10  -1.923077923096776E-10   -1.5399998589548282E-10  -9.582564385685403E-11   -5.7818311500099376E-11  -6.794972292806033E-12   2.4320261444909657E-11
2.6E-5                    1.4241604884864163E-11   -9.0571771563442E-11     -1.7598881404996756E-10  -2.4503698351589263E-10  -2.6966619322580953E-10  -2.462602199435299E-10   -1.9432051865961846E-10  -1.299543500722731E-10   -8.375208215068181E-11   -2.4225017673600055E-11  1.755335322783021E-11
2.65E-5                   -8.46987792891057E-12    -1.2438697533844019E-10  -2.1923123646432178E-10  -3.0041598264574677E-10  -3.160316255723026E-10   -3.0517493896812514E-10  -2.3767597399015626E-10  -1.6793194908472732E-10  -1.0573758690727318E-10  -4.3811039440151264E-11  5.971864003309964E-12
2.7E-5                    -3.7828284330123483E-11  -1.580439021783424E-10   -2.677522207075559E-10   -3.56146318619047E-10    -3.6723059746145355E-10  -3.633158682590618E-10   -2.854814438874681E-10   -2.0606360603300033E-10  -1.2567612480612606E-10  -6.321535334324953E-11   -1.1488341305690228E-11
2.7499999999999998E-5     -7.305130475981749E-11   -1.9183602598538292E-10  -3.2239511847814734E-10  -4.11766002238418E-10    -4.2469253860568704E-10  -4.1377944251860054E-10  -3.354308875110287E-10   -2.408812086888078E-10   -1.4794302232350683E-10  -8.1447316406407E-11     -3.403644889912349E-11
2.8E-5                    -1.1322981540852744E-10  -2.2800011431253816E-10  -3.778386809298621E-10   -4.6511774867415883E-10  -4.830385062028809E-10   -4.517985725184274E-10   -3.801839513567465E-10   -2.7124911232206905E-10  -1.7606439539035596E-10  -1.0029207410310119E-10  -5.974436100172175E-11
2.8499999999999998E-5     -1.5799513144612897E-10  -2.69333274736814E-10    -4.2460103129488916E-10  -5.10843122600515E-10    -5.312120491259606E-10   -4.76038690300694E-10    -4.109621155812509E-10   -2.980385320804115E-10   -2.0975039770018349E-10  -1.2352656459826856E-10  -8.739255367628095E-11
2.9E-5                    -2.0736994964730661E-10  -3.167467857464958E-10   -4.5662361857319065E-10  -5.41730876621151E-10    -5.575776516533039E-10   -4.870595781073947E-10   -4.2338048712791864E-10  -3.22153087679747E-10    -2.443709945794075E-10   -1.5421669001593574E-10  -1.1716544506798708E-10
2.95E-5                   -2.608324019586231E-10   -3.678605224822338E-10   -4.757242463032098E-10   -5.51831796885179E-10    -5.552518039122381E-10   -4.844811252576734E-10   -4.1950024185867275E-10  -3.4243433063785074E-10  -2.7359893337311495E-10  -1.9208952518235482E-10  -1.4943965003019852E-10
2.9999999999999997E-5     -3.164545712371479E-10   -4.173940014919003E-10   -4.873292178855093E-10   -5.383639818554701E-10   -5.233702929808463E-10   -4.648860565625193E-10   -4.036005944858232E-10   -3.5456772647629167E-10  -2.93437273052635E-10    -2.3301498143249997E-10  -1.83344462426955E-10
3.05E-5                   -3.7093598074233876E-10  -4.5853200461704035E-10  -4.921771679031031E-10   -5.004578576808119E-10   -4.634339235361837E-10   -4.215944766683075E-10   -3.757688471864443E-10   -3.518452275607329E-10   -3.0422007805710055E-10  -2.7106608896539245E-10  -2.1695806713723456E-10
3.1E-5                    -4.205247636312647E-10   -4.844493618876072E-10   -4.825757727923617E-10   -4.3610785957974157E-10  -3.7463230226476074E-10  -3.4648137347321996E-10  -3.293434985428913E-10   -3.2788215070472234E-10  -3.086099459858753E-10   -3.01572929684756E-10    -2.488806919739617E-10
3.15E-5                   -4.6206162228158E-10     -4.89705388483759E-10    -4.456151623489444E-10   -3.406536809273781E-10   -2.5270451271710524E-10  -2.3302668862119183E-10  -2.5395669887324E-10     -2.7951241922786353E-10  -3.071558266228701E-10   -3.226566191290442E-10   -2.791719365409668E-10
3.2E-5                    -4.933004906475854E-10   -4.709586448799569E-10   -3.690508963944283E-10   -2.0811135725283137E-10  -9.25263089557156E-11    -7.875275757005491E-11   -1.4104092725993283E-10  -2.0713374317842238E-10  -2.951549476851945E-10   -3.339671381882446E-10   -3.081829192928668E-10
3.25E-5                   -5.122077972007896E-10   -4.263316112460983E-10   -2.4571656573767663E-10  -3.33378469570226E-11    1.0911372944574827E-10   1.1469572152794616E-10   1.218684190228145E-11    -1.1202775815743519E-10  -2.6347553787391167E-10  -3.3382572091942214E-10  -3.340523532877399E-10
3.2999999999999996E-5     -5.157503041669698E-10   -3.538773180157942E-10   -7.55237972541555E-11    1.8708236324812915E-10   3.5280608626146825E-10   3.436595978329483E-10    2.0208313521302545E-10   6.312817252056473E-12    -2.0292062909643088E-10  -3.173829396142033E-10   -3.513781742823466E-10
3.35E-5                   -4.992214073320334E-10   -2.506972894090917E-10   1.353609790803888E-10    4.545107479555054E-10    6.367699142368402E-10    6.045580096029627E-10    4.2092837273243315E-10   1.497381533314098E-10    -1.0903254424867078E-10  -2.775629630983838E-10   -3.529000381552554E-10
3.4E-5                    -4.568285740270964E-10   -1.1351214615642148E-10  3.7881603001882015E-10   7.667707851811008E-10    9.565068905635044E-10    8.939592211359201E-10    6.60693293046866E-10     3.1873205497734455E-10   1.6303869234720747E-11   -2.0837692734690817E-10  -3.3308910033062575E-10
3.45E-5                   -3.8309587311752333E-10  6.025345225772207E-11    6.502745738281233E-10    1.1162466429749477E-9    1.3043908986478335E-9    1.2068664226531584E-9    9.159918817501112E-10    5.111278162728149E-10    1.677210477077005E-10    -1.0826002348490708E-10  -2.902028753107223E-10
3.5E-5                    -2.737804075989076E-10   2.720359501912304E-10    9.502332763782479E-10    1.4900983728893949E-9    1.6702860190077016E-9    1.5351385386268445E-9    1.184231614336329E-9     7.236976276868073E-10    3.4094728501945953E-10   1.9276469029214844E-11   -2.246709478915017E-10
3.5499999999999996E-5     -1.2563745086881239E-10  5.219515089878252E-10    1.2794882410253E-9       1.8731090376050464E-9    2.0425196741469125E-9    1.8673847585951288E-9    1.4626469293269532E-9    9.53826847405364E-10     5.345391303554599E-10    1.6847293431936362E-10   -1.3573519735951356E-10
3.6E-5                    6.406577758990364E-11    8.076355664998434E-10    1.632576111526948E-9     2.250734866805423E-9     2.407684394919812E-9     2.1899091430293122E-9    1.7442692980580682E-9    1.1980880719956628E-9    7.472325104772389E-10    3.353477833501222E-10    -2.0294610927353817E-11
3.65E-5                   2.9687900945108894E-10   1.1222954572920646E-9    1.9958185383179972E-9    2.6100775900870438E-9    2.749403502882628E-9     2.4874314844202095E-9    2.0159425318279243E-9    1.4485263175235638E-9    9.743781106000308E-10    5.194531264770985E-10    1.2488672186309368E-10
3.7E-5                    5.713368503705752E-10    1.4539915166400467E-9    2.3507787789718943E-9    2.938609708274888E-9     3.0477633971619934E-9    2.7429547011926912E-9    2.259832707254733E-9     1.6907103848396732E-9    1.2078188433549654E-9    7.221547267806757E-10    3.0059670747729016E-10
3.75E-5                   8.816453645740555E-10    1.7876323348264678E-9    2.678235770707418E-9     3.2212927513079175E-9    3.280159025997208E-9     2.937233061444856E-9     2.4567237310220135E-9    1.906201941023372E-9     1.4389184082071652E-9    9.43392552121694E-10     5.052358732667747E-10
3.7999999999999995E-5     1.218375502808631E-9     2.108499043816743E-9     2.9588558392285055E-9    3.436954270811663E-9     3.4225221213348646E-9    3.0487366651402376E-9    2.588016550130447E-9     2.0777413945783708E-9    1.6600920975597864E-9    1.179416057306575E-9     7.365799601547375E-10
3.85E-5                   1.5706752539228014E-9    2.404357427581133E-9     3.171889691098055E-9     3.556601518122239E-9     3.4501404629657467E-9    3.054675922073924E-9     2.6354287820961834E-9    2.1926880898970485E-9    1.861940314307781E-9     1.422117708527678E-9     9.920117261351907E-10
3.9E-5                    1.9279451581808608E-9    2.6644405814133175E-9    3.295235335165128E-9     3.547156045679598E-9     3.3387534734034018E-9    2.933041481319045E-9     2.5804450158876657E-9    2.2416702908623007E-9    2.0289724722683244E-9    1.659268623849596E-9     1.266437921065471E-9
3.95E-5                   2.2794085068322464E-9    2.876405007271817E-9     3.3075465738650705E-9    3.3799356435103703E-9    3.066598563583188E-9     2.665143968180715E-9     2.405807755167315E-9     2.213834833714335E-9     2.1395305921426016E-9    1.8753325503214395E-9    1.5504568003629506E-9
3.9999999999999996E-5     2.611969399701015E-9     3.02383825151941E-9      3.1903724296601825E-9    3.0374316103891002E-9    2.616733879108711E-9     2.2378763735823702E-9    2.09859632057542E-9      2.0936678720559104E-9    2.171440811424292E-9     2.053083404160498E-9     1.8307962766251106E-9
4.0499999999999995E-5     2.9082995605914987E-9    3.0860072432305393E-9    2.928766092810867E-9     2.5125662356825485E-9    1.9785984746577934E-9    1.6448699270154809E-9    1.6522623036009326E-9    1.8633398898448896E-9    2.1088657472664227E-9    2.1758129233133236E-9    2.091915826682787E-9
4.1E-5                    3.146907562237982E-9     3.039809324431231E-9     2.5106511043617186E-9    1.8021872969087846E-9    1.148623427487991E-9     8.86089293786589E-10     1.0659082025270229E-9    1.5091889079178538E-9    1.944690190904091E-9     2.229105887278138E-9     2.3167907582492523E-9
4.15E-5                   3.3042546307640963E-9    2.862955467611681E-9     1.925928984906922E-9     9.020951748894967E-10    1.302462155038211E-10    -3.3609523721158873E-11  3.4185111626872313E-10   1.0266344683036344E-9    1.6773839532625958E-9    2.2010867379614873E-9    2.4869892318228046E-9
4.2E-5                    3.357314269907066E-9     2.537284934202081E-9     1.1661544025146875E-9    -1.915752622462437E-10   -1.0661718839643586E-9   -1.1053514896588386E-9   -5.157802464092371E-10   4.1954511202875185E-10   1.3060992600083827E-9    2.081083200561371E-9     2.583379809304277E-9
4.2499999999999996E-5     3.2848952900012383E-9    2.0511477782414148E-9    2.2578637411540867E-10   -1.4758670291876973E-9   -2.4226621943193788E-9   -2.314904014862304E-9    -1.4993774670629233E-9   -3.0393078683448703E-10  8.28058643101295E-10     1.8581210611783597E-9    2.5874792702932435E-9
4.2999999999999995E-5     3.067622017852099E-9     1.4001082772475733E-9    -8.94167081036882E-10    -2.9336031799116195E-9   -3.911681508743862E-9    -3.639129259213506E-9    -2.5934597509255582E-9   -1.1337399663731655E-9   2.393290976345144E-10    1.521035646095129E-9     2.482304331548007E-9
4.35E-5                   2.687999212990788E-9     5.861158196878431E-10    -2.181008368238977E-9    -4.5288238436532645E-9   -5.493943663742476E-9    -5.0424452061334824E-9   -3.7701922170048755E-9   -2.055926226450966E-9    -4.6200481756760326E-10  1.0604870942844626E-9    2.2525873410971208E-9
4.4E-5                    2.131840979545729E-9     -3.8383760138909795E-10  -3.6066014817864735E-9   -6.207699405967429E-9    -7.118124436481959E-9    -6.47611964951875E-9     -4.988002618239708E-9    -3.0486099081300165E-9   -1.271450774895936E-9    4.71337066183993E-10     1.8854012997105117E-9
4.45E-5                   1.3908152167545889E-9    -1.4985130448319988E-9   -5.127659923857839E-9    -7.905380255805878E-9    -8.723355628175516E-9    -7.881311675002774E-9    -6.1948066016285935E-9   -4.079975981099672E-9    -2.174153832481229E-9    -2.460776686437751E-10   1.3715319840347906E-9
4.4999999999999996E-5     4.6469752030686273E-10   -2.7421490583964666E-9   -6.69009660989486E-9     -9.55509441428041E-9     -1.024334958693296E-8    -9.194028167056335E-9    -7.334518482223772E-9    -5.110086447608053E-9    -3.144049736558495E-9    -1.0855517323087023E-9   7.065850110476105E-10
4.5499999999999995E-5     -6.378042792533603E-10   -4.092949911403143E-9    -8.235005102639069E-9    -1.1093140371795158E-8   -1.1609887737282317E-8   -1.0349148981706391E-8   -8.35339015411741E-9     -6.0953021929246136E-9   -4.147598229617559E-9    -2.0344278696295912E-9   -1.0897430972227167E-10
4.6E-5                    -1.899624490201224E-9    -5.520530652048961E-9    -9.703389551773734E-9    -1.245642729777524E-8    -1.2753793551262517E-8   -1.1282109693463698E-8   -9.202703650750038E-9    -6.992587314471154E-9    -5.149521221042886E-9    -3.0726691798330373E-9   -1.0701593904784184E-9
4.65E-5                   -3.2962701294021496E-9   -6.983454187913545E-9    -1.1037759198593295E-8   -1.3576053163161348E-8   -1.3603445988779903E-8   -1.1929127079170647E-8   -9.836737764605372E-9    -7.761314316985242E-9    -6.115416508484951E-9    -4.172458832529835E-9    -2.1667261169957765E-9
4.7E-5                    -4.7958444029637216E-9   -8.428781889611578E-9    -1.2180201776490505E-8   -1.437440748809807E-8    -1.4083673551296917E-8   -1.2228061595069916E-8   -1.0208544920906051E-8   -8.361975358799797E-9    -7.0090204967852825E-9   -5.298939019934542E-9    -3.3808809336772387E-9
4.7499999999999996E-5     -6.357704693566068E-9    -9.79463021999935E-9     -1.306860492814558E-8    -1.4770424457819275E-8   -1.4118837859678658E-8   -1.2121438394779667E-8   -1.0268307766486935E-8   -8.753498694630517E-9    -7.78767995324537E-9     -6.411678946540439E-9    -4.684755990317684E-9
4.8E-5                    -7.930815367849426E-9    -1.10143826568853E-8     -1.3634711153964889E-8   -1.469052950762516E-8    -1.3641071264661467E-8   -1.1561386316768176E-8   -9.967506763112112E-9    -8.892096500687998E-9    -8.401698826731362E-9    -7.465804498955102E-9    -6.039722488704959E-9
4.85E-5                   -9.453826154803004E-9    -1.202010341466973E-8    -1.380748655130917E-8    -1.4077953573663599E-8   -1.2600301074659767E-8   -1.0514645744990709E-8   -9.26737411836599E-9     -8.733712453708892E-9    -8.799270105406095E-9    -8.412034244088469E-9    -7.398176989306436E-9