% Model:              Untitled.mph
% Version:            COMSOL 6.0.0.405
% Date:               Jul 15 2025, 13:11
% Dimension:          1
% Nodes:              401
% Expressions:        11
% Description:        Point graph
% Time (s)                Displacement field, Y component Displacement field, Y component Displacement field, Y component Displacement field, Y component Displacement field, Y component Displacement field, Y component Displacement field, Y component Displacement field, Y component Displacement field, Y component Displacement field, Y component Displacement field, Y component
0                         9.201929615136059E-33    -1.6803871304537543E-33  -5.041199899983462E-34   9.965269950551529E-36    -4.7031918745703744E-35  5.6384727476885095E-36   1.2662842118722806E-36   6.4514277537916155E-37   -4.7071801467623456E-32  -2.691373600641782E-32   -4.979512960664287E-32
5.0E-7                    -4.40183803146603E-24    1.3983513822494064E-25   1.4875049373462433E-25   7.017908814876174E-27    3.7611888817812755E-27   -6.23535414142178E-28    5.315763730532645E-29    -1.2995155437237567E-28  8.868322332177872E-24    -1.6099509910167658E-23  1.2828748014631383E-23
1.0E-6                    2.127023959476998E-24    -1.3726259606354962E-24  -7.08823516137511E-25    -3.529658630639228E-26   4.719548953500984E-26    -9.295922239562888E-27   -4.213286755414393E-27   -4.7366839586387554E-29  -8.652631381430668E-23   3.840362706347644E-24    -3.6640925971564574E-23
1.5E-6                    6.144538464034718E-23    7.914519519602202E-24    6.268905788319764E-25    9.98092226968652E-26     -2.1009697251767726E-25  1.0065474225487934E-25   3.5538446292259146E-26   5.753699915948044E-27    2.635573613698337E-22    6.522648597131111E-23    -1.4869101286966542E-23
2.0E-6                    3.055772130708073E-23    1.3552422510740418E-23   9.643761254630551E-24    -4.766151868687831E-25   -2.595934402340696E-25   -2.660109873637127E-25   -9.887633907237174E-26   -3.063574861631487E-26   1.371956428120455E-21    2.8538715383941748E-21   4.521807493020568E-22
2.4999999999999998E-6     -2.3103413567111305E-22  -1.1985609705862743E-22  -3.5033764141126564E-23  3.9432368272893446E-24   3.0190637549204454E-24   6.313942604036208E-27    1.8727580701288062E-26   3.568143196671768E-26    -8.788229903970734E-21   -1.2805815640230194E-20  -1.91300735440531E-21
3.0E-6                    7.440584835041482E-22    2.6202826725438953E-22   -1.162831344609536E-24   -2.605586268682059E-24   2.385139709793893E-25    9.451827656362822E-25    4.879347624469266E-25    1.6672263601306382E-25   8.731747058938292E-21    1.4786032675048112E-20   2.5664447435808074E-21
3.5E-6                    -5.545221889013771E-22   4.54149106482348E-22     2.4709031913758685E-22   -1.5807386412701944E-23  -2.5418443310254267E-23  -1.680127454354224E-24   -9.047514090607958E-25   -4.558564296647927E-25   3.823304283205795E-20    3.10410368817815E-20     2.6377618176505407E-21
4.0E-6                    -1.2184719327490865E-20  -3.410399768918785E-21   -3.620735678984928E-22   7.905795672358512E-24    7.799278071848922E-24    9.022862571478513E-25    -6.126491400622694E-25   -5.902637275385135E-25   -1.3199646555965498E-19  -2.634695319638686E-19   -1.5304757538660922E-20
4.5E-6                    1.6408818956470237E-20   2.430867292620142E-22    -1.3994197468316476E-21  -6.562948189685335E-23   1.3387664308296594E-22   1.537138449775102E-23    8.359373446574588E-24    3.3513089358586685E-24   -8.831087297604692E-20   2.64877770683225E-19     2.78249090137839E-20
4.9999999999999996E-6     1.53876953126328E-19     3.097494873603852E-20    4.4294994785982705E-21   3.3892573682690154E-22   5.002657544204378E-23    -1.3792211647350362E-23  -2.840530407092844E-24   1.4583795778379197E-24   9.983710150874331E-19    1.7827264867716854E-18   9.507423554968038E-22
5.5E-6                    2.3580537070756908E-20   3.687478545206334E-21    9.108279594429319E-21    1.505389844976278E-21    -5.972806230666756E-22   -1.275679996449195E-22   -6.925390281557964E-23   -2.1922276570615644E-23  1.8078374943263406E-19   -2.4820896355928103E-18  -3.864517536630267E-19
6.0E-6                    -1.0935550370716665E-18  -2.0662265778297455E-19  -3.2996911365757295E-20  -3.01242779469438E-21    -1.1785816521266138E-21  -9.878998074712445E-24   1.2095175618905667E-23   -3.438631617785306E-24   -7.16343248633105E-18    -1.1566525968111294E-17  -1.4091368744332585E-19
6.5E-6                    -1.4991139101913765E-18  -1.6517233710975752E-19  -6.99095615365468E-20    -1.2760046078985402E-20  2.3301394100400948E-21   7.593181400330907E-22    4.866872403918063E-22    1.2896900073247674E-22   -6.020939945171657E-18   7.800798071560497E-19    2.031297660308724E-18
7.0E-6                    4.494407932208604E-18    1.0308419713578565E-18   1.6438905002375202E-19   1.4325087043022825E-20   1.0730463009998732E-20   6.254108818891333E-22    1.5339703227516147E-22   4.450636656268865E-23    3.066082505712528E-17    4.109446068744344E-17    9.858736579058544E-19
7.499999999999999E-6      1.527696936583486E-17    2.0076307737661962E-18   5.171584129241177E-19    8.59738220536091E-20     -3.982077383279886E-21   -3.1861752296577063E-21  -2.747052873809388E-21   -6.453416939603132E-22   4.1374696823933144E-17   3.697710721968049E-17    -1.3278076363309481E-17
8.0E-6                    4.846273684607991E-18    -2.3177045726603253E-18  -3.2976817675753876E-19  -1.0798619697869724E-21  -6.352464608751931E-20   -4.62956639762385E-21    -2.6488991434026437E-21  -5.691358665938492E-22   -1.2169440063981321E-16  -1.0632254421637611E-16  -2.9586857142469696E-17
8.5E-6                    -4.888432012606313E-17   -1.0889370370277472E-17  -2.5823626606736026E-18  -3.6845052020131256E-19  -2.4300210632304775E-20  9.91030034918013E-21     1.1859210594755138E-20   2.504408408048262E-21    -3.1350367085295023E-16  -3.352797005820116E-16   -8.511646219384302E-18
9.0E-6                    -6.806196325949561E-17   -3.2819844517247057E-18  -1.0695512845858434E-18  -2.0092881508696634E-19  2.931060480536385E-19    2.290824639366752E-20    2.227900168619433E-20    4.462719246517561E-21    -2.048132293996489E-18   -3.1448739702990717E-16  1.932824134041417E-17
9.499999999999999E-6      1.3264228185162007E-16   3.825207610140445E-17    9.409508893929905E-18    1.5393150149923931E-18   3.2752671299979025E-19   -1.9654955856711177E-20  -3.3252441009820615E-20  -6.049893372120989E-21   5.279501049190649E-16    1.7343206502744757E-16   -1.5661350838529536E-16
9.999999999999999E-6      5.505747839428759E-16    6.950923297200849E-17    1.6031221186518743E-17   2.702356273739516E-18    -9.38623101625695E-19    -8.386076079466409E-20   -1.2560362623861747E-19  -2.3496861049339612E-20  -5.418231411779756E-16   1.1057341044424977E-17   -6.920028219836219E-16
1.05E-5                   6.912803966585329E-16    -2.8046423371031264E-18  -8.645325099015078E-18   -1.2511051715422582E-18  -1.8221856340679527E-18  1.8336240792996688E-20   1.094465601019265E-20    -2.24166943794212E-21    -3.7004552086756306E-15  -3.0406011621516887E-15  -1.2705524454022497E-15
1.1E-5                    1.316272219992242E-16    -1.4122624252816265E-16  -4.897447614437703E-17   -5.2239917005753E-18     2.284645510757636E-18    2.9794974219067127E-19   4.959029705573708E-19    8.362418950666923E-20    -5.775363992748141E-15   -8.50205270591327E-15    -1.8813369237653965E-15
1.15E-5                   -3.042655025398978E-18   -1.0254174666505152E-17  -8.184228092560247E-19   1.1264308607073914E-17   8.312299798822615E-18    2.0345424861617144E-19   4.908280645951019E-19    1.039443315018974E-19    -6.608591195893501E-15   -1.2898465663708018E-14  -5.080647502531457E-15
1.2E-5                    3.493056867524046E-15    7.960987987184768E-16    2.238941719393568E-16    5.5265365430044317E-17   2.4914571872288113E-19   -7.145713515434665E-19   -1.1674955151561639E-18  -1.6384687627234E-19     -1.7414885147900867E-14  -2.203647532412866E-14   -1.5881534376356358E-14
1.2499999999999999E-5     1.3809321177705569E-14   2.1809281557825733E-15   4.872586434218249E-16    9.309184792615435E-17    -2.1373740204084067E-17  -1.173792000941687E-18   -2.8342807272480503E-18  -5.32645706047385E-19    -5.147770301125678E-14   -5.904855464699826E-14   -3.703572552969253E-14
1.3E-5                    3.138029295629552E-14    3.633041129145748E-15    5.184110162901175E-16    1.1917261270416252E-16   -1.0188048351496006E-17  1.3467394313446463E-18   5.990054369534783E-19    -1.1891863745891944E-19  -1.0928312139884314E-13  -1.434686602168133E-13   -7.038952712030319E-14
1.35E-5                   5.696632145908497E-14    6.122431755491192E-15    6.688498920938975E-16    2.8063650650438955E-16   6.338881171057927E-17    5.4457520025982E-18      9.078148432689155E-18    1.4522283338325879E-18   -2.0285913440828275E-13  -2.7779527366266396E-13  -1.3797348151171692E-13
1.4E-5                    1.0778732655325018E-13   1.4968505465650023E-14   2.668903973176069E-15    8.271876405969069E-16    1.0946645460312703E-16   2.7174283824930278E-18   8.295959491264248E-18    2.094622017676094E-18    -4.146739327529734E-13   -5.051796813216097E-13   -3.0653459538128346E-13
1.45E-5                   2.42418192042118E-13     4.064527401140221E-14    8.835279365061809E-15    1.914216231623901E-15    1.5346420657371292E-17   -9.904529662967652E-18   -1.510191641030764E-17   -1.446001557404697E-18   -9.12186334584616E-13    -9.782662769570686E-13   -6.769279772023034E-13
1.4999999999999999E-5     5.661659096020306E-13    9.741278451304218E-14    2.037546294755751E-14    3.817695746494159E-15    -7.301019392470455E-17   -1.0803918863980483E-17  -3.755340231675735E-17   -7.379830440350456E-18   -1.8954264117563845E-12  -1.91478126275284E-12    -1.3568254848245853E-12
1.55E-5                   1.1974547655912202E-12   2.0850391426990194E-13   3.981867292478716E-14    7.709640991239975E-15    2.1782579362413337E-16   3.002045965459995E-17    -4.121445948817171E-18   -5.544949399967572E-18   -3.5950045515552285E-12  -3.5488576821259232E-12  -2.5159265710057433E-12
1.6E-5                    2.2633078744926798E-12   4.281337649081651E-13    8.013471483617055E-14    1.5859002303625142E-14   9.924390406913474E-16    9.204019570864236E-17    8.44482609213988E-17     1.1645704720344058E-17   -6.4098644049071816E-12  -6.304482690555261E-12   -4.5420508935951245E-12
1.6499999999999998E-5     4.040620222706519E-12    8.707709983526043E-13    1.7154467309319096E-13   3.064311042151026E-14    1.9727693537353566E-15   1.0296697960900262E-16   1.0670103763454402E-16   2.9104775493729654E-17   -1.1049512150086301E-11  -1.0932512700979097E-11  -8.079191473816916E-12
1.7E-5                    7.1423593516172705E-12   1.7207038816935824E-12   3.577136003713645E-13    5.4735110694733276E-14   3.2848216866715218E-15   7.169653870077737E-17    -5.86757401136676E-17    1.0375544713185149E-17   -1.8446714952924517E-11  -1.8046981934576067E-11  -1.3701398335134824E-11
1.75E-5                   1.2318145467992269E-11   3.2288349348485E-12      6.978796584078059E-13    9.51370169282547E-14     6.075632934769573E-15    1.9366759330005683E-16   -2.94714565868458E-16    -5.466089519215183E-17   -2.939309062672429E-11   -2.7425141781756476E-11  -2.1404499022840467E-11
1.8E-5                    1.9677446226438695E-11   5.744610554987782E-12    1.297671942829321E-12    1.6841458609689951E-13   1.2474666954840711E-14   7.323245793330935E-16    -2.4401446807017567E-16  -9.402248405618538E-17   -4.4005129001035776E-11  -3.8316853762616E-11     -3.0519343188707295E-11
1.85E-5                   2.8101142255490547E-11   9.732512543140843E-12    2.346747983014575E-12    3.0157721632096896E-13   2.688316525210978E-14    1.9199542933382736E-15   2.8007403814533624E-16   5.870495209728358E-18    -6.104491460655325E-11   -5.057629633169148E-11   -4.029624961754018E-11
1.8999999999999998E-5     3.595108452710498E-11    1.5559045200753274E-11   4.121444087148238E-12    5.312107181485165E-13    5.882865361213473E-14    4.219220386014803E-15    8.798429982128272E-16    2.271230521941264E-16    -7.727462703518476E-11   -6.4299879512693E-11     -5.04169875768587E-11
1.95E-5                   4.26658822980215E-11     2.303039180686982E-11    6.9666356772456486E-12   9.167127408437042E-13    1.2331868024767946E-13   8.486046962660301E-15    8.071262183261023E-16    3.0885214449701266E-16   -8.77265048102618E-11    -7.728187326345584E-11   -6.042990567023273E-11
1.9999999999999998E-5     4.9037855650805584E-11   3.121519897495491E-11    1.1252331948421602E-11   1.5858072407974603E-12   2.3992177527164837E-13   1.5741494971952003E-14   -5.393122312224753E-17   -1.1065402066373629E-17  -8.784246625422988E-11   -8.398486544249266E-11   -6.850562821503836E-11
2.05E-5                   5.514891586235153E-11    3.9022927384055365E-11   1.7156392841578787E-11   2.8044528200804054E-12   4.4161394351220206E-13   2.8667211686444845E-14   -2.090644915223881E-16   -5.002682719969143E-16   -7.64833029362525E-11    -7.934252962116453E-11   -7.144892574478636E-11
2.1E-5                    5.85500069578665E-11     4.585747073197264E-11    2.4248573621749077E-11   4.999585825034572E-12    7.925204236370257E-13    5.6835287054466217E-14   3.2077184769478284E-15   -3.570281559568978E-16   -5.656747803014925E-11   -6.373010173697598E-11   -6.681644808649144E-11
2.1499999999999997E-5     5.585660521691925E-11    5.113323870406417E-11    3.137681999384845E-11    8.614878799611326E-12    1.3910819491136266E-12   1.206739102777352E-13    1.2369615342133418E-14   9.75790845172444E-16     -3.166898700116844E-11   -4.194710850816777E-11   -5.47732126069064E-11
2.2E-5                    4.6176872532371994E-11   5.313131478353356E-11    3.733990761046437E-11    1.3779993591594597E-11   2.359100165970179E-12    2.4573826945845756E-13   2.6666140822858976E-14   2.851255874234795E-15    -1.9886461229616127E-12  -1.6483267407981207E-11  -3.673773147283684E-11
2.2499999999999998E-5     3.124455744206565E-11    4.9345250625849835E-11   4.164434206592921E-11    2.0035375251655706E-11   3.86678284111954E-12     4.5436622427415154E-13   4.507026038351617E-14    3.785105393839782E-15    3.523928388010454E-11    1.5974168943152116E-11   -1.2130026449957866E-11
2.3E-5                    1.1440423406993693E-11   3.863024393305131E-11    4.3994016229118315E-11   2.6452846763086253E-11   6.187483063965246E-12    7.804168343494452E-13    7.486429424796469E-14    3.4078735361082767E-15   8.153091971768886E-11    5.985455527934197E-11    2.2056943570874737E-11
2.35E-5                   -1.636205203668504E-11   2.2183895997305154E-11   4.2948075589501196E-11   3.2101082270821274E-11   9.627119941195431E-12    1.3127097852349255E-12   1.3896970694902562E-13   4.229190445714803E-15    1.3537250976919074E-10   1.1477128199283965E-10   6.7710143012346E-11
2.4E-5                    -5.51357737351562E-11    1.4579781196867438E-12   3.616390664362936E-11    3.628960260939951E-11    1.422371516942882E-11    2.2201612347196885E-12   2.696410446238438E-13    1.1266022950555696E-14   1.9564968081295744E-10   1.7689932459326598E-10   1.230353164415627E-10
2.45E-5                   -1.0329622522932465E-10  -2.4177119944848452E-11  2.2738065371033555E-11   3.823206959810611E-11    1.9463842921956852E-11   3.706268505801685E-12    4.916761667294873E-13    2.9694440022217876E-14   2.649511778443686E-10    2.449321642399913E-10    1.849612493115898E-10
2.4999999999999998E-5     -1.5669625936365944E-10  -5.656847776961445E-11   4.27900890125572E-12     3.66783635151048E-11     2.4415698098298754E-11   5.918813889738967E-12    8.212395323390128E-13    6.275810805962071E-14    3.4709628132108534E-10   3.214144632961699E-10    2.5326204585546933E-10
2.55E-5                   -2.1478494964171769E-10  -9.638261105611013E-11   -1.7647990523886522E-11  3.035773580156496E-11    2.8204542200199068E-11   8.898080048171444E-12    1.3004882763805104E-12   1.1280778141403174E-13   4.414862428030353E-10    4.0815094129792065E-10   3.305653768200575E-10
2.6E-5                    -2.817761109663113E-10   -1.431290177929278E-10   -4.4294894320453043E-11  1.8982237237970855E-11   3.0238346421122896E-11   1.2578125321010537E-11   2.045521362836271E-12    1.8791904414525536E-13   5.413334564896878E-10    5.029889024983541E-10    4.1809791374998394E-10
2.65E-5                   -3.602611733410906E-10   -1.9690377139540562E-10  -7.817630834778129E-11   3.4702591794601616E-12   2.993217901887431E-11    1.6757442547489078E-11   3.2530932193305643E-12   3.1393504501220223E-13   6.374837335008698E-10    6.012621721880385E-10    5.12255832519468E-10
2.7E-5                    -4.4539349530347665E-10  -2.5785771527423284E-10  -1.1930199505965119E-10  -1.5199430048179045E-11  2.647663369721382E-11    2.1007401736187678E-11   5.133644161854984E-12    5.460015781246804E-13    7.229554502919429E-10    6.97319423697236E-10     6.054722018524817E-10
2.7499999999999998E-5     -5.272596449281565E-10   -3.2363951922820235E-10  -1.6515604150589463E-10  -3.723447773866117E-11   1.9143730945567092E-11   2.462950030189897E-11    7.791118692009901E-12    9.701995848214593E-13    7.938832443456739E-10    7.836529219123967E-10    6.902982634757786E-10
2.8E-5                    -5.98705544143208E-10    -3.893598697456327E-10   -2.1422973073396618E-10  -6.380928825360653E-11   7.751843906989179E-12    2.6755939289031703E-11   1.1102963936539666E-11   1.6921712539907898E-12   8.473456600471417E-10    8.515995511846032E-10    7.63096766631831E-10
2.8499999999999998E-5     -6.596030229062442E-10   -4.5100604624998115E-10  -2.6686216944148734E-10  -9.570877695385614E-11   -7.31669148475385E-12    2.6509907541099095E-11   1.4661637987230315E-11   2.818843709028021E-12    8.789668090917813E-10    8.949953466518269E-10    8.235673864240378E-10
2.9E-5                    -7.127569713126738E-10   -5.075872395411217E-10   -3.21955811577431E-10    -1.3262324777985748E-10  -2.5433580044287038E-11  2.3110000643985722E-11   1.7832926221662068E-11   4.433413472265625E-12    8.822137827236419E-10    9.110151265399381E-10    8.692590866506784E-10
2.95E-5                   -7.554767555284345E-10   -5.58896175404738E-10    -3.755542799106501E-10   -1.7379866717427457E-10  -4.601033609123117E-11   1.5993416228488455E-11   1.9931539964838733E-11   6.547401458661701E-12    8.493571838488055E-10    8.952079275578625E-10    8.902352451618318E-10
2.9999999999999997E-5     -7.757748317413131E-10   -6.016716991282848E-10   -4.239241587920144E-10   -2.1873622077065463E-10  -6.89102794389733E-11    5.065823395872611E-12    2.040575098563125E-11    9.026088830484552E-12    7.726505910833644E-10    8.373806717784554E-10    8.709158230754536E-10
3.05E-5                   -7.582584937679214E-10   -6.283925235176046E-10   -4.6547187307056237E-10  -2.6664179832986266E-10  -9.498741640169297E-11   -9.128196786037259E-12   1.8887443970305318E-11   1.1540421813640358E-11   6.444718944281683E-10    7.248289336879791E-10    7.981626626159259E-10
3.1E-5                    -6.939321396078609E-10   -6.295699162828068E-10   -4.976566242455116E-10   -3.152804802337819E-10   -1.2585337753433972E-10  -2.5700578840093548E-11  1.5117477235392373E-11   1.3631640536968864E-11   4.56959887114285E-10     5.487836928026269E-10    6.663283936161599E-10
3.15E-5                   -5.821269981443457E-10   -5.97474523417362E-10    -5.140983602296754E-10   -3.609036056612196E-10   -1.6238450029153564E-10  -4.4143785952594224E-11  8.942773785995104E-12    1.489685161559165E-11    2.0269836473297655E-10   3.058670915360683E-10    4.741794773086003E-10
3.2E-5                    -4.2211846892146846E-10  -5.282076246484585E-10   -5.072573774831829E-10   -3.9950535549188154E-10  -2.032972071833708E-10   -6.48423369179154E-11    4.895287955591165E-13    1.5156854765154683E-11   -1.2336972566184936E-10  -5.600359608564022E-12   2.194373558013065E-10
3.25E-5                   -2.065583121005339E-10   -4.1983001434625895E-10  -4.728451859074739E-10   -4.2779211691401166E-10  -2.4541022102796297E-10  -8.879722093529851E-11   -9.730157032213904E-12   1.4433962333426107E-11   -5.22296779086805E-10    -3.881628387326022E-10   -1.0211606164603532E-10
3.2999999999999996E-5     7.329917704374049E-11    -2.683157106110219E-10   -4.093128420277855E-10   -4.4253726009334423E-10  -2.8511162408645383E-10  -1.167438773040236E-10   -2.113681107348297E-11   1.2743828089277372E-11   -9.908100486882525E-10   -8.438195066254433E-10   -4.940025469390038E-10
3.35E-5                   4.1838657059957593E-10   -6.700353609899522E-11   -3.1376645291180847E-10  -4.3920453428131243E-10  -3.1929331466490373E-10  -1.4839189443252616E-10  -3.3748127394511836E-11  9.913540009260482E-12    -1.5217204636119E-9      -1.3708209542210974E-9   -9.568973425959825E-10
3.4E-5                    8.225435345048208E-10    1.8831789212644167E-10   -1.8090927073242152E-10  -4.120112581841651E-10   -3.453512561419144E-10   -1.8228833026156666E-10  -4.854835113568277E-11   5.602235809829995E-12    -2.1038314439905575E-9   -1.9607992855977506E-9   -1.4870776644819345E-9
3.45E-5                   1.28091606537333E-9      4.949327458396793E-10    -6.440337013726436E-12   -3.5607904512876494E-10  -3.610088315652754E-10   -2.162252242149337E-10   -6.699591389113569E-11   -5.659919160843132E-13   -2.7209901952638858E-9   -2.59752880867598E-9     -2.074882448992817E-9
3.5E-5                    1.7911664140515605E-9    8.458903318369467E-10    2.099367079776318E-10    -2.695678258134947E-10   -3.639343306090091E-10   -2.478033423767877E-10   -8.98905304194577E-11    -8.988417501143027E-12   -3.3512842172074612E-9   -3.2589554169152404E-9   -2.7051204718410353E-9
3.5499999999999996E-5     2.344357246510337E-9     1.236222340446281E-9     4.652671835329116E-10    -1.5313561624498198E-10  -3.509267194872839E-10   -2.747895166016803E-10   -1.165047397956809E-10   -2.0199741313655383E-11  -3.967744493004432E-9    -3.921123881915002E-9    -3.3591173347459717E-9
3.6E-5                    2.9193605394025792E-9    1.6633153559029686E-9    7.561038286129579E-10    -6.822797742468354E-12   -3.1793453260531605E-10  -2.950630730519389E-10   -1.4471461246837899E-10  -3.481904095248111E-11   -4.540440580927139E-9    -4.558564885788404E-9    -4.014368535326286E-9
3.65E-5                   3.4894040756486945E-9    2.1202674440000357E-9    1.0798233387463975E-9    1.7240635727453505E-10   -2.618860423017855E-10   -3.062475797895158E-10   -1.720175456020845E-10   -5.3121476010496766E-11  -5.038165082799928E-9    -5.139380467932102E-9    -4.6413753677738454E-9
3.7E-5                    4.030877731640692E-9     2.590979049591873E-9     1.432950725695191E-9     3.8943181932693757E-10   -1.8222795757905587E-10  -3.0549385721676557E-10  -1.9660401920560207E-10  -7.453529073800359E-11   -5.428603467927322E-9    -5.6221354588549536E-9   -5.203071053555962E-9
3.75E-5                   4.5220304342259135E-9    3.05260479952497E-9      1.8076253316598839E-9    6.465467906439242E-10    -7.935513612149299E-11   -2.898659497808253E-10   -2.1761698782533956E-10  -9.766924503723345E-11   -5.678038190423413E-9    -5.961541002669593E-9    -5.659338461022287E-9
3.7999999999999995E-5     4.93492902774808E-9      3.4805690428006706E-9    2.189361319740882E-9     9.394448924599337E-10    4.8682687876068926E-11   -2.571410206520129E-10   -2.3438205487659326E-10  -1.2106080315030616E-10  -5.751732815707103E-9    -6.118265563218707E-9    -5.971662791481307E-9
3.85E-5                   5.232700528493765E-9     3.84953802363465E-9      2.5586103590830853E-9    1.2569196757137884E-9    2.0674214827937697E-10   -2.0618601566148578E-10  -2.4530873540452017E-10  -1.4402508934236263E-10  -5.614468314842715E-9    -6.061411676416929E-9    -6.103123405590073E-9
3.9E-5                    5.374623627516116E-9     4.1315528846320355E-9    2.8946078741084763E-9    1.5844218354998648E-9    3.9925405258503505E-10   -1.363350344878703E-10   -2.476192059273296E-10   -1.6669205952686517E-10  -5.231049454021661E-9    -5.76133151580905E-9     -6.015681345161433E-9
3.95E-5                   5.321396808970331E-9     4.296671490286441E-9     3.1771333509950726E-9    1.9085191378021884E-9    6.266744411793539E-10    -4.6294675466732E-11     -2.3839285427796246E-10  -1.890007523065876E-10   -4.568606191436475E-9    -5.183429638876139E-9    -5.669632846292963E-9
3.9999999999999996E-5     5.036561583856599E-9     4.316466088656553E-9     3.384695307221624E-9     2.218558876566488E-9     8.847212615923675E-10    6.619754911342226E-11    -2.159751906433054E-10   -2.0947367145030098E-10  -3.6015639904325823E-9   -4.29240194158554E-9     -5.027152667446413E-9
4.0499999999999995E-5     4.488213092072513E-9     4.165851715831729E-9     3.492625900902276E-9     2.5040382233494283E-9    1.1653417679440668E-9    2.0342232137417605E-10   -1.801610037021748E-10   -2.249528295161945E-10   -2.316470725469321E-9    -3.063021026591561E-9    -4.0584759680216824E-9
4.1E-5                    3.6534825731733806E-9    3.821578388329894E-9     3.474469648625213E-9     2.749961262673882E-9     1.457512313591951E-9     3.6628183013791276E-10   -1.3079542962549244E-10  -2.317204754477966E-10   -7.135050360425156E-10   -1.486490417803901E-9    -2.747304499279207E-9
4.15E-5                   2.5211042036521095E-9    3.2609279809681842E-9    3.3054716973598147E-9    2.9346092373031972E-9    1.7480643476110412E-9    5.536955586776366E-10    -6.6317413457852E-11     -2.2719703610037627E-10  1.1942295826489805E-9    4.3100965232725253E-10   -1.0916821723132346E-9
4.2E-5                    1.0883032196104688E-9    2.46359015901432E-9      2.964974849566926E-9     3.032137101190354E-9     2.0228631329217813E-9    7.628980064056087E-10    1.60702181988333E-11     -2.1079392025805444E-10  3.380112112995197E-9     2.670691163066521E-9     8.994630559874287E-10
4.2499999999999996E-5     -6.430610667727149E-10   1.4153864784478508E-9    2.43715718555193E-9      3.0178401860714767E-9    2.2671609278692668E-9    9.896013716674157E-10    1.1880204124057351E-10   -1.8308483398357278E-10  5.8016159933144885E-9    5.198539941632438E-9     3.2081423280671555E-9
4.2999999999999995E-5     -2.6633947977597386E-9   1.1165836250457359E-10   1.7116580709237127E-9    2.871677123268773E-9     2.464813875585816E-9     1.2274035250205976E-9    2.4264453460519785E-10   -1.4386502985168044E-10  8.398934265120209E-9     7.960624529529569E-9     5.802731150802657E-9
4.35E-5                   -4.946130884460324E-9    -1.439496325455221E-9    7.84386225437621E-10     2.5780474593381005E-9    2.5982333884408973E-9    1.4671826165579703E-9    3.8668252260488585E-10   -9.077977676744743E-11   1.109616209641984E-8     1.0882293669674937E-8    8.630737303916727E-9
4.4E-5                    -7.4415921138279895E-9   -3.2142361345512257E-9   -3.424095451841092E-10   2.1237293202195502E-9    2.650013080495238E-9     1.6974864311563614E-9    5.488412004282906E-10    -1.9952390017379788E-11  1.3803496658032198E-8    1.3871500227737402E-8    1.1616404792499144E-8
4.45E-5                   -1.0079989964850138E-8   -5.172870340351269E-9    -1.660222410692579E-9    1.4969580369854469E-9    2.604229172349253E-9     1.9056115855156304E-9    7.258336074235437E-10    7.162742112754128E-11    1.641863282724543E-8     1.6821954056031162E-8    1.4664139563211512E-8
4.4999999999999996E-5     -1.2779098450397456E-8   -7.263779967835812E-9    -3.1525403247738125E-9   6.887940266730066E-10    2.4457321240641314E-9    2.078059863131788E-9     9.126438720391301E-10    1.8393667062999954E-10   1.8827659404034973E-8    1.9614349129299707E-8    1.7662528557190405E-8
4.5499999999999995E-5     -1.544776473846097E-8    -9.427407121791499E-9    -4.791119167409554E-9    -3.0384842132738033E-10  2.1591985875625525E-9    2.1999271608130814E-9    1.1024486312182124E-9    3.1399266898489556E-10   2.090731932533052E-8     2.2117873877620428E-8    2.0486546140963108E-8
4.6E-5                    -1.7982832028252134E-8   -1.1595773133985733E-8   -6.533006581733077E-9    -1.4746250255632279E-9   1.7305749584063174E-9    2.2544734293552356E-9    1.2872119505936015E-9    4.581583442316544E-10    2.253024907587562E-8     2.419387943748024E-8     2.300055678976741E-8
4.65E-5                   -2.0265708208606173E-8   -1.368888213955144E-8    -8.320809481253392E-9    -2.805002758762822E-9    1.1502351654421818E-9    2.2243620261522917E-9    1.4582655862804417E-9    6.144170983460827E-10    2.3572812988830748E-8    2.5701275733547468E-8    2.5063234509068256E-8
4.7E-5                    -2.216561798856537E-8    -1.561337671903629E-8    -1.0085693144147125E-8   -4.263842031966173E-9    4.148210986474419E-10    2.0943715772982E-9       1.606320100475667E-9     7.822632264102337E-10    2.3922503281712288E-8    2.6502622572952767E-8    2.6531831772731043E-8
4.7499999999999996E-5     -2.354920883697216E-8    -1.7265800663907865E-8   -1.1750937507904166E-8   -5.809663277781822E-9    -4.732960059484201E-10   1.8536684092526518E-9    1.7211409407991685E-9    9.601936660291842E-10    2.3481765907079446E-8    2.647030638076302E-8     2.726499937995228E-8
4.8E-5                    -2.4289485767457556E-8   -1.8538313710329166E-8   -1.3235006823654386E-8   -7.3937100568055525E-9   -1.5069074154301592E-9   1.4959355559744168E-9    1.791443185182781E-9     1.1431440942974254E-9    2.2169167587184496E-8    2.5492556383882577E-8    2.7127434885243925E-8
4.85E-5                   -2.426898058468033E-8    -1.9324458535307113E-8   -1.4454248587240325E-8   -8.961101861021378E-9    -2.6731162611345657E-9   1.0176544229220076E-9    1.8052604041471252E-9    1.3220695027422956E-9    1.9922603861172308E-8    2.3479898930894877E-8    2.59985866221758E-8