% Model:              Untitled.mph
% Version:            COMSOL 6.0.0.405
% Date:               Jul 15 2025, 16:49
% Dimension:          1
% Nodes:              401
% Expressions:        11
% Description:        Point graph
% Time (s)                Displacement field, Y component Displacement field, Y component Displacement field, Y component Displacement field, Y component Displacement field, Y component Displacement field, Y component Displacement field, Y component Displacement field, Y component Displacement field, Y component Displacement field, Y component Displacement field, Y component
0                         1.498128949888751E-32    6.750950488546115E-33    4.688762130218053E-32    -3.156705076418395E-32   2.72866479860537E-32     -2.1752494406889615E-31  -2.59246806354419E-32    -2.3588813423938267E-32  -4.712880257566667E-32   -3.771172794410362E-33   -1.5648156786407253E-33
5.0E-7                    1.529535335830499E-26    -2.2254704062256225E-24  -1.2611073560638384E-23  9.28899823110155E-24     2.389673557457578E-23    2.011106248271703E-23    1.3797860661897483E-23   4.968358077377592E-24    1.482735594297889E-23    3.4578785834557296E-25   -2.6941002745436966E-25
1.0E-6                    4.2773124123155247E-23   3.6870159885202995E-23   -1.1778869618447144E-22  -4.906267720249212E-24   -1.435092259213376E-22   1.7110895228663534E-22   1.1282000286474873E-23   -1.0324965803140445E-23  1.501041779483211E-23    4.0471575826176926E-24   3.2585558780853804E-24
1.5E-6                    1.5254456836091577E-23   -1.7097459048549412E-22  7.5754149327899625E-22   2.378874655648536E-22    5.318483552558062E-22    -1.0919966782599918E-21  -1.5772535362578733E-22  -1.1311036411727715E-23  -4.976457914044778E-22   -3.3787975069266405E-23  -1.7104480144074534E-23
2.0E-6                    -4.835055533445555E-22   -5.993822204767905E-22   -7.367701047117848E-22   -9.700751725385481E-22   1.6507259646130546E-22   8.446892395627232E-22    5.9976607572745625E-22   2.5160113340255717E-22   9.816928128162556E-22    7.482494107107215E-23    6.642339573314268E-23
2.4999999999999998E-6     2.738999207277851E-22    2.328175076721049E-21    -2.065915817979205E-21   -6.739360952845632E-22   -2.350267589372505E-21   2.6184873626710098E-21   -1.6582480447795583E-21  -1.2058318387486211E-21  1.0385519819089665E-21   1.0408767099268261E-22   9.428351728152775E-24
3.0E-6                    1.5068853780009941E-21   3.603685734001388E-21    -7.3395493647772235E-22  8.612374716639543E-21    -1.117488516147848E-20   7.168475386173649E-21    -5.764937496072691E-21   1.848171631214974E-21    -1.9957529703836988E-21  -3.5050963102821385E-22  -6.022137074095003E-22
3.5E-6                    -4.06627475991036E-21    -1.1675083052253286E-20  7.954046751221849E-21    -1.6441996789249032E-20  -4.684793069918025E-21   -2.0308652246493097E-20  9.613528542534337E-21    5.830490456502054E-21    -2.0463361381026818E-21  -1.22609681249138E-21    -2.6605838154551097E-22
4.0E-6                    -3.8465244065329086E-21  -9.587135564767434E-21   2.846342984653421E-20    2.5347651324328274E-21   9.409781982893065E-20    -8.44395869393241E-20    6.657077039522193E-20    -1.9139751440098983E-20  4.735515784797072E-21    2.4483100150584894E-21   3.9278409743316114E-21
4.5E-6                    4.0959682059594166E-20   8.930214931013166E-20    -6.639582710369865E-20   1.737611572185539E-19    1.2790182536880682E-19   -8.094697154884663E-21   2.2840857143298987E-20   -4.199090668821466E-20   -1.7504291080190775E-20  9.278702563894327E-21    5.449001720285412E-21
4.9999999999999996E-6     3.504730624327441E-20    9.215452032892216E-20    -2.0298414844006803E-19  -5.705480535409491E-20   -2.761977914118189E-19   2.3109075983370605E-19   -4.893859529496448E-19   7.588060119056057E-20    -1.0578483671421056E-19  -1.9063363431293822E-20  -1.5564613913682388E-20
5.5E-6                    -1.8363343456925574E-19  -4.829421279165864E-19   2.910410915372928E-19    -6.216196465440001E-19   -4.126618762464545E-19   8.848994467364071E-20    -7.320252637696698E-19   3.336879788412591E-19    5.008751426953124E-20    -5.440018989173274E-20   -4.492375627349172E-20
6.0E-6                    -2.516700169547691E-19   -7.892676468178449E-19   9.887076129162259E-19    2.939852080251239E-19    1.1264071070967203E-18   -1.452844728289932E-18   1.9163795241494074E-18   8.84751013081959E-21     7.471337528137362E-19    1.1943885452296265E-19   4.543573409827191E-22
6.5E-6                    2.257879868744137E-19    1.9893835557869254E-18   -2.498155045653096E-19   2.470171474917883E-18    1.5476931141150792E-18   -6.1116360345417E-18     5.165824951446928E-18    -1.8369291434908947E-18  6.409549636943678E-19    3.2731516591925666E-19   1.8665366920832608E-19
7.0E-6                    7.029173512143236E-19    6.756482262664871E-18    -5.033501384515504E-19   3.974949870604016E-18    -4.247025820393764E-18   -1.4219629229491554E-17  -4.659618400680422E-18   -2.8861402233507906E-18  -3.0580067582348204E-18  -6.088856112699209E-19   3.939069119826797E-19
7.499999999999999E-6      1.5518094374844454E-18   2.0547426284708984E-18   9.569912342823187E-18    3.139705471677329E-18    -2.0428796073078104E-18  -1.7017076725151618E-17  -2.842948666813008E-17   3.4060974134943047E-18   -8.160101403716769E-18   -2.165637948777292E-18   -8.724532107955068E-20
8.0E-6                    1.7211243980877255E-18   -2.0520885026510998E-17  2.6425942630661604E-17   -1.0050918334431005E-17  3.971465086172745E-17    -1.9950622288915608E-17  -1.8130548302207746E-17  1.4398944171919666E-17   5.182840806421611E-19    1.5507483225446897E-18   -2.413380370644033E-18
8.5E-6                    -9.229133650250788E-18   -3.000235522559382E-17   4.450985197191545E-17    -3.20349362201463E-18    8.083980779332499E-17    -1.327398756497923E-16   5.906086860010955E-17    -9.520745397068134E-19   3.036282658525598E-17    1.1217086513268032E-17   -4.0824902227310724E-18
9.0E-6                    -2.8612681949191366E-17  4.578133804096793E-17    1.2674688073508086E-16   2.048984486003599E-16    -7.352390790438467E-18   -5.685095241616084E-16   6.104564983707044E-17    -7.538054402668327E-17   2.4865116388905465E-17   2.0722241955237108E-18   5.416429175838217E-18
9.499999999999999E-6      -4.864660425655859E-18   2.037606959345477E-16    4.108646159400449E-16    6.95135958786383E-16     -1.0902920561876599E-16  -1.36282453502876E-15    -2.5188780677804923E-16  -1.453478712006236E-16   -9.849568942342621E-17   -4.5429005299240684E-17  2.6785644491860885E-17
9.999999999999999E-6      6.103743158426684E-17    2.1327821211956617E-16   1.0861400842968093E-15   8.816928946410795E-16    3.322247108012574E-16    -2.3057814845467993E-15  -7.35729100484719E-16    -5.701925128254714E-17   -2.2976137140443654E-16  -5.562192865689744E-17   1.3242343341101825E-17
1.05E-5                   -4.6058382913357455E-17  -1.8167154631884603E-16  2.4865559754709593E-15   5.238639738630712E-16    1.4098936913675948E-15   -4.08455001514953E-15    -7.891177226640505E-16   6.032858227790199E-17    -5.804698518518069E-17   9.277309163029911E-17    -9.026508841098266E-17
1.1E-5                    -4.656361121871962E-16   -4.941561863891013E-16   5.10799995695817E-15     2.8512089708367225E-15   2.0550508080580575E-15   -1.0220681720216575E-14  -6.800509194847964E-16   -5.634432216975683E-16   2.839262141783311E-16    2.491944820349065E-16    -1.6784108363979057E-16
1.15E-5                   -7.928894035711531E-16   8.12299783867686E-16     1.0538831382777455E-14   1.3511844334219084E-14   2.447739848420346E-15    -2.7147865217293742E-14  -2.9699887785927792E-15  -2.6230015448102225E-15  -2.2706956732733604E-16  -8.675920136933517E-17   9.322743949656791E-17
1.2E-5                    -9.977412597951465E-16   4.476595296683442E-15    2.420966811129199E-14    3.1829170825756E-14      6.564367178597694E-15    -6.026772938649698E-14   -1.0770143958268432E-14  -5.475476514232754E-15   -2.1663315158840117E-15  -9.474041245415622E-16   6.369039207735104E-16
1.2499999999999999E-5     -2.9054144404234467E-15  8.01707333179264E-15     5.4037108724978646E-14   5.1918492269274794E-14   1.735883349338341E-14    -1.0939829744270162E-13  -2.3823822548476487E-14  -8.549644273964092E-15   -3.818538725061947E-15   -1.0776153942663363E-15  4.343561038970402E-16
1.3E-5                    -7.987140969069414E-15   8.822765532240451E-15    1.0349970456501718E-13   8.899544502725852E-14    3.1512390540548257E-14   -1.786038860764098E-13   -4.1257455720922964E-14  -1.6082821440010214E-14  -3.625859355125357E-15   6.2534415140111E-16      -1.4379695347465911E-15
1.35E-5                   -1.4281411492868614E-14  1.3521074870274398E-14   1.8435530609570376E-13   1.9136836229417025E-13   5.301977987844892E-14    -3.145004021185825E-13   -7.541403856740947E-14   -3.8466963529830264E-14  -6.965253857144492E-15   1.8595460739365267E-15   -3.151676222432829E-15
1.4E-5                    -2.440796315272806E-14   3.990196819949632E-14    3.552712679708334E-13    3.887979680320004E-13    1.1057788061529359E-13   -6.293917036335913E-13   -1.6016822997978776E-13  -8.547677264667744E-14   -2.563686548221727E-14   -2.6288687030144977E-15  -4.966469873230038E-16
1.45E-5                   -5.736970491190643E-14   9.993124267722194E-14    7.01782905657652E-13     6.482593658507886E-13    2.2830417955697695E-13   -1.2027466119353506E-12  -3.331111578377879E-13   -1.6315415879304635E-13  -6.199643450525257E-14   -1.3578669880488996E-14  6.1924566829061686E-15
1.4999999999999999E-5     -1.3127964674652644E-13  1.8472907882725166E-13   1.2013424388556008E-12   9.629857752972671E-13    3.775020841158141E-13    -1.8988601680206777E-12  -6.133616235029142E-13   -2.9129345924462216E-13  -9.990362914297488E-14   -2.2177301081565892E-14  6.331711199202261E-15
1.55E-5                   -2.3038078668781746E-13  2.9131623046717923E-13   1.6664369295580755E-12   1.4786279393598665E-12   5.514865906529298E-13    -2.4453859050168274E-12  -1.0322744269171087E-12  -5.284602213649067E-13   -1.380236751494137E-13   -2.2232269324376217E-14  -1.1044900281579658E-14
1.6E-5                    -3.431335642053312E-13   4.781613523782537E-13    2.0310836718229774E-12   2.3975245156824916E-12   9.626875807777185E-13    -2.9766059988668477E-12  -1.716160507674968E-12   -9.630848025736256E-13   -2.4364388640349534E-13  -3.2326750100790654E-14  -3.618709695629067E-14
1.6499999999999998E-5     -5.704085482650408E-13   8.522095890033196E-13    2.7913037772811398E-12   3.754325833217385E-12    2.0064100556532938E-12   -4.456657891714302E-12   -2.921089640465084E-12   -1.675232636599224E-12   -5.363091176080364E-13   -9.341608727373497E-14   -3.868835745739933E-14
1.7E-5                    -1.1109235416411766E-12  1.4399380498164426E-12   4.968257037565284E-12    5.534993417703373E-12    3.731548742316437E-12    -8.139011916382062E-12   -4.961507404124509E-12   -2.7688139262853163E-12  -1.0780687295428773E-12  -2.2866729928594283E-13  -8.5545774796629E-15
1.75E-5                   -2.0452966276675378E-12  2.1422024819301564E-12   9.34598892787559E-12     8.151319214894844E-12    5.414949176425235E-12    -1.4402152000259017E-11  -8.161835296535755E-12   -4.5419736239897725E-12  -1.8283226570144948E-12  -4.1777814426529904E-13  1.8414463308721873E-15
1.8E-5                    -3.2731901786201457E-12  3.066739466400369E-12    1.5667145428640986E-11   1.2539812420276673E-11   6.336092665039195E-12    -2.2404589915103363E-11  -1.2986005337157177E-11  -7.621093204429726E-12   -2.8274413606787865E-12  -6.506385624671949E-13   -9.598590470492286E-14
1.85E-5                   -4.9396175012648465E-12  5.018673541998302E-12    2.2769817341986826E-11   1.95289996249351E-11     7.582901885787188E-12    -3.103634315096968E-11   -2.0160630435260648E-11  -1.2728254359675208E-11  -4.459166101465455E-12   -1.0321636397103857E-12  -3.32824438484601E-13
1.8999999999999998E-5     -7.89424343274928E-12    9.264039493154395E-12    2.972390284607645E-11    2.9186898483610354E-11   1.2622309925569883E-11   -3.978733243594558E-11   -3.028050817142129E-11   -2.0065381789218574E-11  -7.39187910724929E-12    -1.8227190993374667E-12  -6.266740811751671E-13
1.95E-5                   -1.3304840964905872E-11  1.619695811022161E-11    3.6678724315898295E-11   4.0738396447972564E-11   2.4622119459325374E-11   -4.825066912694148E-11   -4.27238015475871E-11    -2.8835304195274706E-11  -1.2087463341069897E-11  -3.348599404765213E-12   -8.738744023309139E-13
1.9999999999999998E-5     -2.1497060705025067E-11  2.4263533418120386E-11   4.403190930458463E-11    5.2522062652202423E-11   4.220561486139735E-11    -5.494682669876288E-11   -5.467408786293751E-11   -3.741496764455678E-11   -1.8332753620800438E-11  -5.843503419342726E-12   -1.1513672095446044E-12
2.05E-5                   -3.126000658735742E-11   3.096009883796238E-11    5.044217735949532E-11    6.15977515704863E-11     5.844155480676862E-11    -5.719660306743025E-11   -6.156934315869584E-11   -4.4022739386983794E-11  -2.528119569970735E-11   -9.329607005203216E-12   -1.8361846941876416E-12
2.1E-5                    -4.042559114513697E-11   3.527433466079259E-11    5.223213112286878E-11    6.403331771130068E-11    6.54834791921855E-11     -5.2591529838100385E-11  -5.93638610577078E-11    -4.7263042716337885E-11  -3.184954656685681E-11   -1.360633778288564E-11   -3.4517288114011317E-12
2.1499999999999997E-5     -4.70489035451945E-11    3.8449039279577226E-11   4.578833622860832E-11    5.677844613636505E-11    6.087495856923946E-11    -4.068246680345481E-11   -4.7153212522489125E-11  -4.625396302699923E-11   -3.69078151177728E-11    -1.8352394681264242E-11  -6.279369980945444E-12
2.2E-5                    -5.0086227310437005E-11  4.1622449941851006E-11   3.0962571703279116E-11   3.9767269902946533E-11   4.8818938383183405E-11   -2.294762491763426E-11   -2.7882048075540445E-11  -4.053702683372155E-11   -3.916691525624418E-11   -2.3228482258964122E-11  -1.0064177175214458E-11
2.2499999999999998E-5     -4.932391641012914E-11   4.326704998993204E-11    1.1631558158520598E-11   1.5810802993452077E-11   3.490227208722886E-11    -7.934839892061512E-13   -6.193342269188928E-12   -2.997862428595804E-11   -3.728633113889595E-11   -2.775587010244321E-11   -1.415916822069954E-11
2.3E-5                    -4.487349631497493E-11   4.0126090360120944E-11   -7.733108509199113E-12   -1.1964967112960765E-11  2.0114673450367653E-11   2.6203476666103306E-11   1.5078030439790908E-11   -1.4682158933264568E-11  -3.0459625277916104E-11  -3.093677864198546E-11   -1.8033851212772077E-11
2.35E-5                   -3.645179569407366E-11   3.074978419187557E-11    -2.637102576882168E-11   -4.2594718293547744E-11  5.018328316613736E-13    5.956962129905297E-11    3.6985310146980534E-11   5.1036810382892835E-12   -1.8910307375978008E-11  -3.108416619680957E-11   -2.1595094124537292E-11
2.4E-5                    -2.2863701947674775E-11  1.697385355946182E-11    -4.8336751504920174E-11  -7.732162293345718E-11   -2.799036609030369E-11   9.96260001292691E-11     6.345958159095266E-11    2.9176920325318376E-11   -3.6056478088941235E-12  -2.645447098045118E-11   -2.486755152651871E-11
2.45E-5                   -2.3504148281617616E-12  1.1600424752984896E-12   -7.943882435790624E-11   -1.1759708015292192E-10  -6.53548774989783E-11    1.4484006893723113E-10   9.816854766267629E-11    5.7805381168177846E-11   1.4643212843662703E-11   -1.6492925627263506E-11  -2.7311120253465075E-11
2.4999999999999998E-5     2.6286712977644778E-11   -1.758851107819384E-11   -1.2278086165042454E-10  -1.6331284600664596E-10  -1.0792861053647703E-10  1.939218625844705E-10    1.4203845717502999E-10   9.206320635785393E-11    3.58025455637982E-11     -2.535023068772783E-12   -2.760337984021283E-11
2.55E-5                   6.291082488658009E-11    -4.3738970225533685E-11  -1.7660664902203448E-10  -2.128721577435798E-10   -1.5167527797636377E-10  2.4776154620614487E-10   1.9346318487269674E-10   1.3335190848498326E-10   6.040721163891106E-11    1.2995686506015823E-11   -2.4326191076100157E-11
2.6E-5                    1.0639940359863502E-10   -8.157847107143243E-11   -2.358965279728744E-10   -2.6468056227204984E-10  -1.9470834022110785E-10  3.081980926764368E-10    2.5042107215216845E-10   1.8203710490600486E-10   8.892009337062336E-11    2.8424882359769407E-11   -1.6987072517834797E-11
2.65E-5                   1.555585654181961E-10    -1.309133377342187E-10   -2.959166236904748E-10   -3.183099997075499E-10   -2.378737934626943E-10   3.746975782400423E-10    3.1176702904649066E-10   2.3633172999284877E-10   1.2143413524438858E-10   4.412931897411559E-11    -6.2971226124464954E-12
2.7E-5                    2.0960340182812124E-10   -1.8619611976904248E-10  -3.544175953856928E-10   -3.739514975614273E-10   -2.8423743633498104E-10  4.4268738727583074E-10   3.7608550727168733E-10   2.925744639817383E-10    1.5781789438755334E-10   6.220658160062611E-11    6.741520157075911E-12
2.7499999999999998E-5     2.679516848824441E-10    -2.4029100861046293E-10  -4.1072720316124806E-10  -4.3050261068744567E-10  -3.3759461294562075E-10  5.051791666937579E-10    4.394577770245076E-10    3.4668871103948594E-10   1.9758572127783512E-10   8.486029299942641E-11    2.2174704223043792E-11
2.8E-5                    3.2964233915566184E-10   -2.9016033830333875E-10  -4.632495905596003E-10   -4.842635480388938E-10   -3.994358072747204E-10   5.556770699557315E-10    4.9494861559867E-10      3.9551342913462783E-10   2.3914941638271726E-10   1.1274623058217744E-10   4.1506027545871144E-11
2.8499999999999998E-5     3.926171176947792E-10    -3.3923465161561977E-10  -5.08470242527623E-10    -5.298546773646477E-10   -4.655855059941073E-10   5.897586341867612E-10    5.349830898482089E-10    4.3694462116751606E-10   2.794408335732726E-10    1.443242737503972E-10    6.653565374286489E-11
2.9E-5                    4.531408463485521E-10    -3.9321929460034616E-10  -5.424490085037619E-10   -5.62464865730282E-10    -5.257884145769396E-10   6.048793749290806E-10    5.548412642686039E-10    4.689433810887099E-10    3.150542066489209E-10    1.7655295293996387E-10   9.747938632786222E-11
2.95E-5                   5.058692215428893E-10    -4.5251281000710256E-10  -5.625062119914562E-10   -5.786740376725339E-10   -5.680106983479111E-10   5.994690642944647E-10    5.541647400791213E-10    4.885159399919301E-10    3.4409285547349565E-10   2.0654295009642695E-10   1.3208486209162403E-10
2.9999999999999997E-5     5.448110661317625E-10    -5.08889578890818E-10    -5.667215838656717E-10   -5.746498372112306E-10   -5.844625869678931E-10   5.719379014002991E-10    5.348792700834419E-10    4.918535036772821E-10    3.663768143266783E-10    2.3310306965457773E-10   1.6669629956590765E-10
3.05E-5                   5.647218084885937E-10    -5.501892556709091E-10   -5.519102228742661E-10   -5.439873642536909E-10   -5.735972371336491E-10   5.194838247019228E-10    4.969678221355802E-10    4.754854704657814E-10    3.8133858955288895E-10   2.5688494883304913E-10   1.9840520105875932E-10
3.1E-5                    5.620970719853861E-10    -5.6788886405056E-10     -5.125397097879835E-10   -4.781993471344106E-10   -5.358347208889991E-10   4.3704041909763315E-10   4.3542559939857477E-10   4.3683538253726016E-10   3.85960048004239E-10     2.787461426239017E-10    2.2637027336917093E-10
3.15E-5                   5.35133355350669E-10     -5.595363670236685E-10   -4.416653644781391E-10   -3.6961903002187984E-10  -4.675772504198986E-10   3.17528384739031E-10     3.408720993260782E-10    3.7318240264009286E-10   3.751419784497146E-10    2.975729451679622E-10    2.512168093962922E-10
3.2E-5                    4.824585640067181E-10    -5.249432087984387E-10   -3.3300268494105915E-10  -2.137941444301447E-10   -3.6037419241940906E-10  1.5403461691903515E-10   2.0352390735569568E-10   2.8034803317377743E-10   3.438242965918125E-10    3.0944074310275557E-10   2.7322779997686714E-10
3.25E-5                   4.01160760842038E-10     -4.6241563487113186E-10  -1.82737949147721E-10    -1.0071743409860483E-11  -2.0657724851821024E-10  -5.7423110783965537E-11  1.7781676140726225E-11   1.5315349077243237E-10   2.8841984336025723E-10   3.087715319350397E-10    2.909282021822313E-10
3.2999999999999996E-5     2.8560604120448054E-10   -3.6945713204150524E-10  1.0178078240631625E-11   2.3812202914827735E-10   -5.582071841413255E-12   -3.169434839423862E-10   -2.1579122910292266E-10  -1.2512455181808461E-11  2.0672109773693864E-10   2.9039573664938643E-10   3.009818952076658E-10
3.35E-5                   1.285964996886636E-10    -2.4499835257303667E-10  2.4573456752921857E-10   5.228769062717603E-10    2.3589117028596263E-10   -6.221972091821086E-10   -4.924195704086456E-10   -2.1822230920071378E-10  9.73075735522324E-11     2.5098758449040553E-10   2.991568215434756E-10
3.4E-5                    -7.53856556192028E-11    -8.846663249806414E-11   5.247991482965435E-10    8.338544377823721E-10    5.096196096097109E-10    -9.699580013806838E-10   -8.070321935343526E-10   -4.633087134328527E-10   -4.090208917272589E-11   1.892903385137704E-10    2.8163780688045565E-10
3.45E-5                   -3.2736098673402486E-10  1.0318648309201135E-10   8.481218747802956E-10    1.1638270114089696E-9    8.118489896555926E-10    -1.3551868019319287E-9   -1.1561854995015864E-9   -7.456524614543143E-10   -2.091066833059265E-10   1.0551147934803987E-10   2.46094047904469E-10
3.5E-5                    -6.2388619586766E-10     3.3551812982478256E-10   1.2121485979561661E-9    1.5128921237547788E-9    1.1436961981308433E-9    -1.7683527497975069E-9   -1.5358113161984458E-9   -1.0612795298439227E-9   -4.085043071298084E-10   4.536456690727529E-13    1.9198954192598562E-10
3.5499999999999996E-5     -9.594800027731808E-10   6.126147432745148E-10    1.6061028179738106E-9    1.885131112219808E-9     1.5055783153777789E-9    -2.1942627804001906E-9   -1.9368486562305696E-9   -1.4029738358905892E-9   -6.386015038850299E-10   -1.2527256608703415E-10  1.197130052179664E-10
3.6E-5                    -1.328405330397002E-9    9.33364270381101E-10     2.0142704645882715E-9    2.2785931768640067E-9    1.890172588164597E-9     -2.6141736412769923E-9   -2.3429143642294585E-9   -1.759548422281543E-9    -8.948149902947825E-10   -2.7170721623406686E-10  2.8767754079401235E-11
3.65E-5                   -1.7235434735507964E-9   1.2911991241119287E-9    2.4210239429574963E-9    2.6771213328044557E-9    2.279199626227141E-9     -3.0091644698731413E-9   -2.731863974936906E-9    -2.1166938727194416E-9   -1.1680199864678112E-9   -4.3936860195783717E-10  -8.3639800968585E-11
3.7E-5                    -2.133424088025146E-9    1.675742076259369E-9     2.8124199410713182E-9    3.0511078896494555E-9    2.6462551648395656E-9    -3.361334580991947E-9    -3.079461784612691E-9    -2.458486645680206E-9    -1.4470734987169218E-9   -6.282068437495411E-10   -2.2192354832405806E-10
3.75E-5                   -2.5406096295044797E-9   2.073771579617266E-9     3.172837452578968E-9     3.365737675289067E-9     2.9636606592854244E-9    -3.6519284327218676E-9   -3.3623594536037904E-9   -2.7678918861276255E-9   -1.7218000098285162E-9   -8.359110389421605E-10   -3.8903900023129306E-10
3.7999999999999995E-5     -2.9232340578766E-9      2.4697051901244117E-9    3.4817933938626305E-9    3.589614074674597E-9     3.2087000461153596E-9    -3.858827021101699E-9    -3.5590966770318203E-9   -3.0258887806843606E-9   -1.9831753226212448E-9   -1.0565724430505514E-9   -5.830487728530922E-10
3.85E-5                   -3.258216681079511E-9    2.846483080195875E-9     3.7154314688733817E-9    3.69847033499058E-9      3.3652424118268967E-9    -3.956361944411312E-9    -3.6494242772378947E-9   -3.2107090622067697E-9   -2.22057190966388E-9     -1.2809100806536123E-9   -7.963669212003836E-10
3.9E-5                    -3.52312513272289E-9     3.185680484179784E-9     3.850486585154723E-9     3.6737058933904816E-9    3.4201712370193965E-9    -3.9180256965742876E-9   -3.6130174418478844E-9   -3.298712716792799E-9    -2.4189917526604873E-9   -1.4981079037839827E-9   -1.0186797053608692E-9
3.95E-5                   -3.695337912029013E-9    3.4660286723926228E-9    3.865500542356295E-9     3.4986940014717446E-9    3.357852889796788E-9     -3.7200786147918962E-9   -3.4289775019026373E-9   -3.2665392630649736E-9   -2.5589083523005995E-9   -1.6976237399484246E-9   -1.2409552952879987E-9
3.9999999999999996E-5     -3.750048690462649E-9    3.662779580736352E-9     3.738653350878854E-9     3.156417652452996E-9     3.1572362992952274E-9    -3.343581294840852E-9    -3.0769900639427477E-9   -3.0929863355303915E-9   -2.618843899595397E-9    -1.869146247884064E-9    -1.4566088733934799E-9
4.0499999999999995E-5     -3.659829176949155E-9    3.7504761032258465E-9    3.4468466711690186E-9    2.6307386941982126E-9    2.794105756633257E-9     -2.7742077357781024E-9   -2.539493560929399E-9    -2.760058079790813E-9    -2.5790114898134414E-9   -2.000812814637592E-9    -1.6586812840805897E-9
4.1E-5                    -3.3971096868407492E-9   3.706905359240254E-9     2.9692442653202552E-9    1.9106304720330866E-9    2.247297442695127E-9     -2.0016099297228957E-9   -1.8034915499428739E-9   -2.2539346990914183E-9   -2.4240921357529496E-9   -2.077829877232546E-9    -1.8360769259924207E-9
4.15E-5                   -2.9385507166625093E-9   3.513366129114251E-9     2.2925793308854572E-9    9.938175796704928E-10    1.505148428817982E-9     -1.0206574769408363E-9   -8.619776091546465E-10   -1.5662835538303733E-9   -2.143835648055397E-9    -2.0834105414379744E-9   -1.9728878670651152E-9
4.2E-5                    -2.2688429128508798E-9   3.151024517255541E-9     1.4131903111139301E-9    -1.1318649722859322E-10  5.685582183834457E-10    1.6533439757386282E-10   2.8368669287666417E-10   -6.953850360567852E-10   -1.7315576523008906E-9   -2.0016945744697927E-9   -2.051545122196659E-9
4.2499999999999996E-5     -1.38200006900384E-9     2.5992403411581266E-9    3.346800810428942E-10    -1.3975784159599643E-9   -5.50488095895324E-10    1.5419457856914564E-9    1.6203278972098731E-9    3.532667810101518E-10    -1.182415464130734E-9    -1.8205086091940173E-9   -2.056715835671187E-9
4.2999999999999995E-5     -2.8028152526814084E-10  1.840335875102771E-9     -9.35081441282344E-10    -2.8412892630383575E-9   -1.8326787848621876E-9   3.083900475193541E-9     3.1208167632876132E-9    1.5665032529313746E-9    -4.937456923026055E-10   -1.5322439841441947E-9   -1.9765768015506522E-9
4.35E-5                   1.0271741169072693E-9    8.67453978288109E-10     -2.3838087272231086E-9   -4.418305579755791E-9    -3.2532326334983973E-9   4.757417043008577E-9     4.7454163390608516E-9    2.9229206847434674E-9    3.324406510700472E-10    -1.1330803411078048E-9   -1.8012394923424498E-9
4.4E-5                    2.5238240272131926E-9    -3.1205471442098927E-10  -3.9914433195242855E-9   -6.0902242093760804E-9   -4.77952094588117E-9     6.521608436412673E-9     6.445527557001739E-9     4.39254284069927E-9      1.2872263641398754E-9    -6.221542889172014E-10   -1.5210191040169019E-9
4.45E-5                   4.1829849909549375E-9    -1.680442235879446E-9    -5.72628154241059E-9     -7.80371842512145E-9     -6.366816010705625E-9    8.327406185998748E-9     8.166492217999481E-9     5.9368339641478214E-9    2.3546837909213466E-9    -1.847183846432726E-12   -1.1270217909038E-9
4.4999999999999996E-5     5.96470027021766E-9      -3.215317424704619E-9    -7.54296566280193E-9     -9.491927461687517E-9    -7.957186557159293E-9    1.0115873560595753E-8    9.847833302465392E-9     7.508661058192979E-9     3.512726253346263E-9     7.211189146879135E-10    -6.138486471704936E-10
4.5499999999999995E-5     7.814607809532305E-9     -4.890249266233159E-9    -9.383129500162892E-9    -1.1079408455345286E-8   -9.483625632893713E-9    1.181873880094673E-8     1.142259504508894E-8     9.052075669072099E-9     4.732558551717381E-9     1.5349593752052614E-9    1.7886742072179466E-11
4.6E-5                    9.665810510535524E-9     -6.669220741870181E-9    -1.117838059623148E-8    -1.2488844432472797E-8   -1.0876057662029532E-8   1.3361505580874298E-8    1.281812585866463E-8     1.0502606154839176E-8    5.9768146708599615E-9    2.423118096790946E-9     7.610347371213409E-10
4.65E-5                   1.1442506668364014E-8    -8.501031450880524E-9    -1.285449872225106E-8    -1.3646765957765309E-8   -1.2064466435149253E-8   1.4667017847881923E-8    1.395842951433864E-8     1.1788930719577075E-8    7.198968496342227E-9     3.36500983582611E-9      1.6029696456315132E-9
4.7E-5                    1.3063003761040568E-8    -1.032008928669154E-8    -1.43351639796882E-8     -1.4485597823442423E-8   -1.2978470211637323E-8   1.5657961450272482E-8    1.4766479497194717E-8    1.2836038548271227E-8    8.345575686492777E-9     4.336135841830495E-9     2.526402816275586E-9
4.7499999999999996E-5     1.4440991849890676E-8    -1.2053227957595362E-8   -1.5544132775529545E-8   -1.4941750127741822E-8   -1.3546804623830927E-8   1.6259183753212215E-8    1.5165863874379076E-8    1.356912025197975E-8     9.35998954125032E-9      5.307198105832919E-9     3.5088444460500296E-9
4.8E-5                    1.5486519391462928E-8    -1.3625854212609957E-8   -1.6406411014931778E-8   -1.4953027720842406E-8   -1.3699615713005868E-8   1.6401426295078558E-8    1.508327547823659E-8     1.3917286032630788E-8    1.0185366753151682E-8    6.243065725728441E-9     4.5213845196688956E-9
4.85E-5                   1.6109053567918646E-8    -1.4962243213030722E-8   -1.6849818840810167E-8   -1.4459627330465534E-8   -1.3373087748661222E-8   1.602627294793335E-8     1.4453702841551317E-8    1.3816781869475421E-8    1.0766483542348154E-8    7.102969931979908E-9     5.528274152619447E-9