% Model:              Untitled.mph
% Version:            COMSOL 6.0.0.405
% Date:               Jul 17 2025, 02:38
% Dimension:          1
% Nodes:              401
% Expressions:        11
% Description:        Point graph
% Time (s)                Displacement field, Y component Displacement field, Y component Displacement field, Y component Displacement field, Y component Displacement field, Y component Displacement field, Y component Displacement field, Y component Displacement field, Y component Displacement field, Y component Displacement field, Y component Displacement field, Y component
0                         -5.476987073004788E-33   -1.4713481779057296E-32  -5.661004901402322E-34   7.27671787527551E-34     2.2187830357635806E-32   1.9029864543244658E-31   2.6201803495640376E-31   2.1471248521388622E-32   9.813306835991337E-35    1.9881488404192225E-35   5.0254529979877904E-36
5.0E-7                    1.2380319638215254E-24   1.8712637658895953E-24   7.235079569669099E-26    -1.0479889102130173E-25  -3.2384780359933565E-24  -3.134172627279966E-23   -4.506102690635633E-23   -1.2944837154232337E-24  -1.3801661296975334E-26  -1.9567111083473147E-27  -6.939079827341301E-28
1.0E-6                    -7.603788691223352E-24   2.298643388691354E-24    6.3738296540547505E-25   1.5034400794578216E-25   4.6176048867796335E-24   5.0971959102157784E-23   3.745986965835309E-23    1.7333642596225832E-23   1.5314700537783234E-26   -3.51423651791645E-27    6.287174505521323E-28
1.5E-6                    5.17989369786537E-24     -2.405405393875252E-23   -7.444652548866977E-24   -8.743392634164462E-26   -4.431064488278362E-24   -4.5589767311985905E-23  -1.223472234125869E-23   1.6935731351168743E-23   1.1919802025299454E-27   1.893428004565337E-26    8.360579084422357E-28
2.0E-6                    7.231266663840554E-23    1.2146613605734695E-22   2.178282865810557E-23    -1.2414306032037214E-24  -2.926065557493831E-25   -1.1239528259670642E-22  -2.942196199665735E-22   -5.2864060343949576E-23  -7.25089991196519E-26    -4.3142574475429346E-26  -4.316184719253353E-27
2.4999999999999998E-6     -9.271788642315027E-23   -5.957664358611937E-22   -3.003820721546721E-23   6.3443693127438266E-24   2.0318526201659544E-23   6.979287559582172E-22    2.021370813543756E-21    -5.786684704455354E-22   3.948366080797924E-25    2.608805823239477E-25    1.061428260139794E-26
3.0E-6                    -1.0876971036964374E-21  9.859836291692089E-22    -1.7067653986015118E-22  -6.223945100880094E-24   2.886161372340482E-23    -1.7458948377975032E-21  6.677884185876436E-21    -1.7763674370142137E-21  -1.2454213845293416E-24  -1.1680463938523484E-24  -2.396847237301917E-26
3.5E-6                    5.407064021954642E-22    3.718386722880213E-21    1.6144344817693167E-22   -2.0406033206068248E-23  6.230164446883561E-23    7.00579318908029E-21     -7.451522218523546E-22   2.8442399083069133E-22   1.2327709791024073E-24   2.017185829250836E-24    3.1194928294833965E-26
4.0E-6                    8.97779732927999E-21     -8.19302223803683E-21    1.4399501521578744E-21   -2.3844713431033882E-23  4.204759713359559E-22    -4.1326991817165405E-21  -8.010640263398945E-20   1.7928429683730192E-20   2.9353551936255753E-24   1.7061484023548448E-24   -5.428109612335919E-27
4.5E-6                    -8.46283348408439E-21    -2.5423714290968973E-20  1.5479540375015454E-21   2.4755862828489945E-22   3.5023783670319475E-21   -4.590150152932371E-21   -3.955643802277908E-20   4.2653459884259075E-20   -1.9408836653253598E-24  -1.8046761996244647E-23  2.7374041197289133E-25
4.9999999999999996E-6     -4.692511541296007E-20   2.508260310373886E-20    -1.3094525954880621E-20  3.606473761673789E-22    1.2851496741761672E-20   8.614888791087519E-20    4.982935073369133E-19    -3.6361135614994813E-20  -2.4989164011423245E-23  4.283044325119567E-23    -8.174375892434664E-25
5.5E-6                    7.879383585298431E-20    1.729431305567477E-19    -3.50444406003248E-20    -2.316378196670969E-21   1.4611530031150737E-20   8.006735371102426E-20    7.211692988021102E-19    -3.082074181383437E-19   -1.428361193556347E-23   5.2755975918745453E-23   -3.2417305961981313E-24
6.0E-6                    2.3977505597825435E-19   4.560965769272373E-20    6.180672111826003E-20    -2.5073594452738236E-21  1.3613708289448568E-20   -4.477986807874961E-20   -1.0921510587944287E-18  -2.7107670766771343E-19  2.775543686555254E-22    -4.407848004367418E-22   9.980788939143291E-24
6.5E-6                    -4.339369250669662E-19   -8.84196591169687E-19    3.000091279635617E-19    1.4730779166862758E-20   1.9840167228374456E-19   3.4217073165427262E-19   -2.1843791422178704E-18  1.124281674909196E-18    -4.9652915047004355E-24  2.4398276254844578E-23   2.6295723562983977E-23
7.0E-6                    -1.3079385264074047E-18  -1.1667019136750138E-18  -8.439063747710155E-20   1.456654565061529E-20    7.433214066334841E-19    2.0299364390312608E-18   4.4977573072644436E-18   2.940878150179947E-18    -1.915364596384807E-21   2.9683894750932913E-21   -5.940271680066742E-23
7.499999999999999E-6      1.2900460537195533E-18   2.7729280774417585E-18   -1.7889179793344164E-18  -7.448941321155893E-20   1.3171643667318509E-18   4.225376026299027E-18    1.3731578001452886E-17   -6.622930195910441E-20   5.998099971433754E-22    -7.537318049400839E-22   -2.0602936509516046E-22
8.0E-6                    5.1736953131232815E-18   7.39799555380298E-18     -1.6612494866399626E-18  -8.565381650309743E-20   2.841138138047356E-18    1.0583276235712374E-17   1.4251563944009813E-17   -7.5310440160556E-18     1.0968565770534599E-20   -1.6471569066587133E-20  2.212424484378472E-22
8.5E-6                    -5.181613813202445E-18   -3.8975347040059424E-18  6.210897802127778E-18    2.7578221836157577E-19   1.1353666633949278E-17   4.1233913894425016E-17   2.981360963198321E-17    8.217738757329407E-18    7.734300175299371E-22    1.8535795307992667E-21   1.3704821179929474E-21
9.0E-6                    -2.853692887193597E-17   -3.179398286360112E-17   1.3914306012486402E-17   3.5788605432836635E-19   3.6095260620885394E-17   1.0041079546806492E-16   8.389829671163699E-17    7.749971027892348E-17    -4.265326364217059E-20   8.224168387834304E-20    -1.5969628928164792E-23
9.499999999999999E-6      -1.2710708559669474E-17  -2.6263702109834228E-17  -1.02354091132071E-17    -9.857668666520851E-19   8.548682956341576E-17    1.735119299130713E-16    1.6896057317986632E-16   1.3655176823389174E-16   -5.7267889527207945E-21  2.52354866703314E-20     -6.607060905648321E-21
9.999999999999999E-6      5.5041203964529474E-17   5.21335513263308E-17     -6.84036303872849E-17    -1.809745224277502E-18   1.979791948828544E-16    4.841267961647491E-16    5.64272212168549E-16     9.444749858357741E-17    2.143271581677765E-19    -3.4310994429028095E-19  -5.1182115723793934E-21
1.05E-5                   -1.1156054709199722E-17  1.0033923700927136E-16   -5.080502799476371E-17   1.3083717903958175E-18   5.311505001721686E-16    1.6678560818327171E-15   2.0239179294662965E-15   2.4815179279312713E-16   3.2533006553167395E-19   -2.5263813300041297E-19  2.574884057640416E-20
1.1E-5                    -4.330137254647592E-16   -1.1056216472438341E-16  1.5043347899693824E-16   1.7808841040811935E-18   1.4434086071029089E-15   4.143607931369037E-15    4.7574157002090165E-15   1.3851884545474489E-15   -7.553946925503807E-20   1.3389780658809425E-18   5.081230034108091E-20
1.15E-5                   -9.657736351383978E-16   -6.556805630311787E-16   2.6368790060936555E-16   -1.3459834382756758E-17  3.5100943466184967E-15   8.087700885763808E-15    8.19130630932848E-15     4.004851292573611E-15    2.631849774992872E-20    1.9919396907852882E-18   -3.7568475448929367E-20
1.2E-5                    -1.1200685017897E-15     -1.1161740244429398E-15  -3.337172174861222E-16   -3.288481800967483E-17   7.784644930813121E-15    1.6884364105661E-14      1.581030583323466E-14    8.40424490593835E-15     3.691851348806057E-18    -3.2369898012007673E-18  -1.9245366141996531E-19
1.2499999999999999E-5     -1.872079715847764E-15   -9.225242993243667E-16   -1.4864208443797288E-15  -3.5664607292372364E-17  1.7205773789108504E-14   4.132080218775791E-14    4.077824814071833E-14    1.7346800552040442E-14   1.26960340090884E-17     -7.62615579490291E-18    6.24866129705284E-20
1.3E-5                    -6.791648100464362E-15   -1.3628300047421156E-15  -1.522264474408012E-15   -9.842940659749791E-17   3.962999998346565E-14    9.7452409415277E-14      1.0072898055432962E-13   3.807707596642908E-14    2.5557599774759094E-17   1.0877191863639154E-17   1.0935070598671616E-18
1.35E-5                   -1.949091557744457E-14   -7.288607635101235E-15   1.3077478872320679E-16   -4.072177059048388E-16   9.073580863711013E-14    2.0549388415762203E-13   2.1217460046816135E-13   8.198327518802994E-14    5.233693919716113E-17    4.501581265090447E-17    1.7522968213700117E-18
1.4E-5                    -4.0943283988191644E-14  -2.3104745945614025E-14  -1.1066651901251847E-15  -1.0545496354107108E-15  1.9587577278638984E-13   4.127009928515909E-13    4.1794692503971466E-13   1.7256374360433429E-13   1.4544716838883613E-16   2.6958922257881546E-17   3.381307257822906E-19
1.45E-5                   -7.752413395393194E-14   -4.7193702879728286E-14  -1.2274180069371307E-14  -2.134565718282029E-15   3.998288784624985E-13    8.349926165484132E-13    8.343809600041518E-13    3.6673785011242203E-13   4.158184263667189E-16    -4.24269629961891E-17    1.0635423359541263E-18
1.4999999999999999E-5     -1.590271707997384E-13   -8.428504041137801E-14   -3.364290646345625E-14   -4.686309362750308E-15   7.970896487277192E-13    1.668733634193047E-12    1.6470820076752052E-12   7.624285981314096E-13    1.0499824452122863E-15   8.488945846850319E-17    1.769280029712086E-17
1.55E-5                   -3.4221184055348595E-13  -1.7425765047996025E-13  -6.082592782269803E-14   -1.1695162904099966E-14  1.5682548507824427E-12   3.169940337527111E-12    3.078632250133007E-12    1.4787417550720494E-12   2.4651347940931076E-15   6.686033849335575E-16    5.87850141100898E-17
1.6E-5                    -6.915102480852952E-13   -3.9193159287948595E-13  -1.0718831055835086E-13  -2.800364132261838E-14   2.9858046395952444E-12   5.693230269479128E-12    5.482304310779394E-12    2.681841386770855E-12    5.710855950126424E-15    1.4298402075924673E-15   1.1367998349713814E-16
1.6499999999999998E-5     -1.2896163802910968E-12  -8.107872071523286E-13   -2.2071338332553697E-13  -6.08213895891201E-14    5.399866551801881E-12    9.780184066773047E-12    9.492733176754621E-12    4.718294475814029E-12    1.3046701977583022E-14   2.0102667298260617E-15   2.0978088189687215E-16
1.7E-5                    -2.318229695656613E-12   -1.5259219323463226E-12  -4.745486926438628E-13   -1.2505639093630452E-13  9.24468312208353E-12     1.5988695624601974E-11   1.575362448985242E-11    8.182491009823353E-12    2.890894882325585E-14    3.993749738823606E-15    5.486266309138539E-16
1.75E-5                   -4.112917362282213E-12   -2.7715794906961147E-12  -9.621400246000016E-13   -2.5469626840180915E-13  1.49631241100916E-11     2.423301633840083E-11    2.4057713004651234E-11   1.3605612478479072E-11   6.223622744134371E-14    1.17043822188792E-14     1.5471809690264291E-15
1.8E-5                    -7.07007257603502E-12    -4.955104840242643E-12   -1.8207360355940263E-12  -5.144165302810982E-13   2.2646222387422975E-11   3.318831002812775E-11    3.282900691179905E-11    2.083799684610059E-11    1.3065359664539764E-13   2.9103564296431076E-14   3.700877103461823E-15
1.85E-5                   -1.1514464293001964E-11  -8.482890641555823E-12   -3.2424685194217383E-12  -1.002024169063845E-12   3.156628690515091E-11    4.080546243766349E-11    4.001660626052455E-11    2.8771148870890557E-11   2.650599965472078E-13    5.799246669239841E-14    7.809656186222158E-15
1.8999999999999998E-5     -1.7679882810839964E-11  -1.3590672299778087E-11  -5.4742415269147955E-12  -1.8416834971679104E-12  4.0293636612828566E-11   4.5856380303203204E-11   4.467824777799532E-11    3.5891209655174445E-11   5.137714702058034E-13    1.0727057045456584E-13   1.636266993323683E-14
1.95E-5                   -2.5500017848140138E-11  -2.0305321031938903E-11  -8.871706997438106E-12   -3.1880807842486805E-12  4.763728179162909E-11    4.868030787992294E-11    4.7178901210892907E-11   4.119137682743216E-11    9.493771612379043E-13    2.0866840029095313E-13   3.553138474069829E-14
1.9999999999999998E-5     -3.3873576121645715E-11  -2.815247453918886E-11   -1.3831486913420725E-11  -5.247866201492655E-12   5.3379623008380396E-11   4.989025699689214E-11    4.766608817209963E-11    4.442198046047418E-11    1.6789020605246503E-12   4.1553627530616516E-13   7.589661964289827E-14
2.05E-5                   -4.0250960405031586E-11  -3.550939610507074E-11   -2.0192098440014183E-11  -8.22996487555937E-12    5.766273811602163E-11    4.881234876307968E-11    4.5160920156004354E-11   4.5439519658311E-11      2.8421557448682156E-12   7.780726265055224E-13    1.5257884379232377E-13
2.1E-5                    -4.1977722082752916E-11  -3.962379597320952E-11   -2.6354428523373657E-11  -1.2078015181118835E-11  5.970798119468967E-11    4.423560475604362E-11    3.874237253712964E-11    4.364186297965254E-11    4.569062731082779E-12    1.3356151533498758E-12   2.89826830862134E-13
2.1499999999999997E-5     -3.859532055906198E-11   -3.808661368037016E-11   -2.945882847368387E-11   -1.6069773186006467E-11  5.7766729796546725E-11   3.628895987231467E-11    2.8817364592110165E-11   3.8406813319965935E-11   6.876729681069715E-12    2.1610763533760042E-12   5.313598559426852E-13
2.2E-5                    -3.188182029878857E-11   -3.040852634655285E-11   -2.734007742753604E-11   -1.878458682673201E-11   5.050651610946092E-11    2.5662447551541714E-11   1.6100872944440577E-11   2.989206432240942E-11    9.530955311419822E-12    3.3919422944313267E-12   9.451359200518516E-13
2.2499999999999998E-5     -2.2854525204423535E-11  -1.7674608914094987E-11  -2.0478893213467994E-11  -1.884958866088272E-11   3.7696359905817566E-11   1.0477327185973105E-11   -3.6977330275816306E-13  1.8615053726932853E-11   1.1970193672234342E-11   5.1205140469360215E-12   1.6095853795116593E-12
2.3E-5                    -9.954524508700901E-12   -9.318768420920728E-13   -1.1374549991942739E-11  -1.5967653649323097E-11  1.8941283947192518E-11   -1.3991612960338939E-11  -2.3148268315704574E-11  3.791312076744534E-12    1.3433697201982685E-11   7.166549790632097E-12    2.5876062889678457E-12
2.35E-5                   8.435735039128755E-12    1.907319095275566E-11    -1.8545412610695573E-12  -1.1072218606596894E-11  -7.688413803626446E-12   -5.1090461771637886E-11  -5.4391025387116665E-11  -1.7223865496197578E-11  1.3317137091056088E-11   8.996674580906538E-12    3.903098989249646E-12
2.4E-5                    3.103547169620777E-11    4.068410112201892E-11    8.243469988299362E-12    -5.284740992679032E-12   -4.4830684367508297E-11  -9.979849539923846E-11   -9.492035609431549E-11   -4.684803975240485E-11   1.1495318749009176E-11   9.997788041665781E-12    5.50756688206214E-12
2.45E-5                   5.5504071399956444E-11   6.151837491957794E-11    1.9638749089175975E-11   1.1530122673790944E-12   -9.360678276633103E-11   -1.572269735849937E-10   -1.4513762961972495E-10  -8.4915809716113E-11     8.248434223735734E-12    9.880743611483424E-12    7.214797023984564E-12
2.4999999999999998E-5     8.232007945410221E-11    8.083239767925531E-11    3.2224602885948616E-11   8.780965029605103E-12    -1.528069198469112E-10   -2.222441201626123E-10   -2.054075754631114E-10   -1.2960080022020555E-10  3.827171092889069E-12    8.739337611155029E-12    8.652153085304049E-12
2.55E-5                   1.138699302140576E-10    1.0079173297729632E-10   4.6144582254652654E-11   1.80348339341955E-11     -2.2035586059812227E-10  -2.9469010521768317E-10  -2.747296799054743E-10   -1.8056527347589723E-10  -1.8045191163449523E-12  6.69307297771058E-12     9.344684930585313E-12
2.6E-5                    1.4975030377481468E-10   1.244250758803033E-10    6.3344658641228E-11      2.8803969520382687E-11   -2.9505843956877083E-10  -3.72545495046337E-10    -3.4983464251532246E-10  -2.3942364870431826E-10  -8.705546166759321E-12   3.628648876627332E-12    8.952338252663865E-12
2.65E-5                   1.860991740625223E-10    1.5277520441435564E-10   8.63934598438777E-11     4.0773927784925503E-11   -3.76576924145516E-10    -4.522771240800252E-10   -4.265082918148869E-10   -3.063194558855793E-10   -1.6609925578601895E-11  -5.739748134445719E-13   7.473278035249182E-12
2.7E-5                    2.2038069302331354E-10   1.844519308320466E-10    1.152631502672383E-10    5.3922481196213513E-11   -4.638409588535453E-10   -5.312409325507191E-10   -5.014355777849444E-10   -3.775964224439161E-10   -2.5121470903767994E-11  -5.690120827050947E-12   5.1960930706898765E-12
2.7499999999999998E-5     2.540407279138222E-10    2.1687865583384785E-10   1.457925307684556E-10    6.865635970552072E-11    -5.537649824143117E-10   -6.075663467945219E-10   -5.719928531658343E-10   -4.481233680239998E-10   -3.4240986648605576E-11  -1.1270054703839353E-11  2.4320605792027362E-12
2.8E-5                    2.8899733720040006E-10   2.469693596111716E-10    1.7180811619876853E-10   8.541208189961201E-11    -6.416745901007137E-10   -6.776704274855816E-10   -6.346237369291249E-10   -5.147105866144032E-10   -4.4404288764312304E-11  -1.7133854040114087E-11  -7.248686560377593E-13
2.8499999999999998E-5     3.235680338715975E-10    2.7143989747475435E-10   1.8934491743368074E-10   1.0374304024858869E-10   -7.227900698446335E-10   -7.351813240915497E-10   -6.844419680429931E-10   -5.756297732958546E-10   -5.587204951619623E-11   -2.3567714902076416E-11  -4.4584902976331544E-12
2.9E-5                    3.533222074975001E-10    2.878203107077525E-10    1.9962056025355186E-10   1.2170793669862432E-10   -7.927339638077197E-10   -7.723741498255827E-10   -7.163624486988609E-10   -6.275069015245431E-10   -6.827878568862176E-11   -3.097616504358549E-11   -9.171398092076884E-12
2.95E-5                   3.743212480930885E-10    2.950557391838541E-10    2.078017692231772E-10    1.3678921539825812E-10   -8.462948353849757E-10   -7.821173777351219E-10   -7.255020472628349E-10   -6.644615767244555E-10   -8.089119250299689E-11   -3.9493669084553474E-11  -1.5360771843876573E-11
2.9999999999999997E-5     3.8403239663429236E-10   2.9238590486636935E-10   2.175046403732612E-10    1.478434238883173E-10    -8.761735913797042E-10   -7.586662319892018E-10   -7.06107405157898E-10    -6.802469472814853E-10   -9.305201505732694E-11   -4.900871625724555E-11   -2.3368876008689293E-11
3.05E-5                   3.8025681661373845E-10   2.779089064538604E-10    2.2567087021581034E-10   1.5556929693167508E-10   -8.735963607164526E-10   -6.970334917181477E-10   -6.511045417294369E-10   -6.697994420636633E-10   -1.0409364946764673E-10  -5.939951774279252E-11   -3.307032275780555E-11
3.1E-5                    3.60593425737218E-10     2.4871813320906703E-10   2.236639400046166E-10    1.6044136000871587E-10   -8.302698780891762E-10   -5.918990537394125E-10   -5.536400068021618E-10   -6.284213167696533E-10   -1.1296056277426405E-10  -7.053655107767213E-11   -4.380856583303852E-11
3.15E-5                   3.2220473220121075E-10   2.0179658804784378E-10   2.0424403815629069E-10   1.6070576312309993E-10   -7.397117062737231E-10   -4.3782689335706984E-10  -4.089238937115177E-10   -5.506515435595004E-10   -1.1834218217177008E-10  -8.198446099147631E-11   -5.4782646377375305E-11
3.2E-5                    2.610316259564459E-10    1.341143481510194E-10    1.6687894740598727E-10   1.5323859394347206E-10   -5.970635816960325E-10   -2.3091871181217403E-10  -2.1424568216531288E-10  -4.307987468905575E-10   -1.1938585012275232E-10  -9.272114048075741E-11   -6.557241295867971E-11
3.25E-5                   1.7209887334366306E-10   4.275438432399892E-11    1.1561697466992056E-10   1.3602024776003095E-10   -3.980685868383926E-10   3.0516913677730256E-11   3.22972447150193E-11     -2.6442624278879093E-10  -1.161004152233744E-10   -1.0123583508159829E-10  -7.622895221365949E-11
3.2999999999999996E-5     5.205842914663992E-11    -7.359042073720152E-11   5.275102141506004E-11    1.087389518464748E-10    -1.384545594489698E-10   3.473342965050978E-10    3.322549403018269E-10    -4.912828595433624E-11   -1.0877742012146892E-10  -1.0612000222144317E-10  -8.680841405104469E-11
3.35E-5                   -9.855055853758455E-11   -2.1305948858539083E-10  -2.423749923992418E-11   7.09937535999818E-11     1.8535773095330078E-10   7.203207989413683E-10    6.858339068196632E-10    2.157736524285687E-10    -9.690416418454894E-11   -1.0676734865311982E-10  -9.689505259498985E-11
3.4E-5                    -2.7612087352965973E-10  -3.712292012195097E-10   -1.2010111464521793E-10  2.1067534506065854E-11   5.745627333976654E-10    1.1482585214284708E-9    1.0905935748858478E-9    5.297032745184537E-10    -7.86520430542449E-11    -1.0341850205393862E-10  -1.056542460819129E-10
3.45E-5                   -4.765551060334247E-10   -5.433919633133608E-10   -2.3749733408952775E-10  -4.2868669585193536E-11  1.02690789344624E-9      1.6251906335565273E-9    1.5405883201385946E-9    8.905102831258835E-10    -5.140404624676895E-11   -9.623255739211195E-11   -1.122370583567774E-10
3.5E-5                    -6.962760266894871E-10   -7.260383228589473E-10   -3.7477352146535847E-10  -1.208714803642347E-10   1.5369903804651358E-9    2.1396422569272995E-9    2.0256384202670206E-9    1.2933688096933097E-9    -1.281529991690633E-11   -8.419131036907712E-11   -1.1589017908614478E-10
3.5499999999999996E-5     -9.310615512057987E-10   -9.163724500364559E-10   -5.263306351561385E-10   -2.11126425512542E-10    2.0963739057571587E-9    2.6757248284858014E-9    2.530793749963099E-9     1.7299333971683768E-9    3.831549481090754E-11    -6.504476564186347E-11   -1.1558037371916886E-10
3.6E-5                    -1.1746388137713003E-9   -1.1105051358314038E-9   -6.845012839770589E-10   -3.113945275845821E-10   2.69214398364842E-9      3.2144778347732365E-9    3.0368576967165825E-9    2.188555506659669E-9     1.0165417433674325E-10   -3.642566656946784E-11   -1.0969630007539825E-10
3.65E-5                   -1.4181466514253642E-9   -1.301330459486353E-9    -8.418893489220959E-10   -4.198429240337294E-10   3.3052509716602676E-9    3.734360160282937E-9     3.52198812655023E-9      2.654870089295976E-9     1.7544330006826583E-10   3.015108709431495E-12    -9.635580753879792E-11
3.7E-5                    -1.6502320994733257E-9   -1.4773851654057744E-9   -9.927636267773627E-10   -5.34263409050724E-10    3.910789398114259E-9     4.210588368221542E-9     3.962930012550406E-9     3.111476129825942E-9     2.571311837092716E-10    5.34219374374839E-11     -7.404624587465679E-11
3.75E-5                   -1.8578923304995248E-9   -1.6241398388411068E-9   -1.1324651119008907E-9   -6.508016556707824E-10   4.479901826261705E-9     4.6143098742985326E-9    4.334889731478567E-9     3.537014067316838E-9     3.4422370376153825E-10   1.1421035748149211E-10   -4.1878657852203435E-11
3.7999999999999995E-5     -2.0282220713983072E-9   -1.7272677161955848E-9   -1.2555162746685232E-9   -7.637025512310932E-10   4.981355298463163E-9     4.9135629320415125E-9    4.610863851405489E-9     3.906430753827034E-9     4.346257173477798E-10    1.8433566595234044E-10   7.483360076635517E-13
3.85E-5                   -2.14993930541386E-9     -1.7750645909457121E-9   -1.354045035391386E-9    -8.662922360645667E-10   5.38215258887796E-9      5.075989312135368E-9     4.761722611141053E-9     4.1930096676421475E-9    5.260360512996482E-10    2.6212865020206227E-10   5.452103617227058E-11
3.9E-5                    -2.213249755174719E-9    -1.7581957642310002E-9   -1.4173061328577587E-9   -9.521418534354667E-10   5.648031245474687E-9     5.070586901089312E-9     4.757327200531935E-9     4.3703386274843265E-9    6.149633044958617E-10    3.451807355626365E-10    1.2003046324117437E-10
3.95E-5                   -2.2082660590451983E-9   -1.6682292212948261E-9   -1.432392650001963E-9    -1.015203702398604E-9    5.744380390458777E-9     4.8674734566914745E-9    4.56832265158202E-9      4.4124764216354835E-9    6.963798609624636E-10    4.305764880260332E-10    1.9710836399412008E-10
3.9999999999999996E-5     -2.123555246990857E-9    -1.497054670189634E-9    -1.3863284489126808E-9   -1.048844656543452E-9    5.637416130700003E-9     4.438381907539369E-9     4.168268542271513E-9     4.293275060975788E-9     7.642873579945644E-10    5.151662263562081E-10    2.843009487936428E-10
4.0499999999999995E-5     -1.9460588935176364E-9   -1.2371135949108192E-9   -1.2689817510831658E-9   -1.0452126012931639E-9   5.295486365456294E-9     3.759688999600311E-9     3.5355651555483033E-9    3.987247723563334E-9     8.125453761798622E-10    5.954849716104129E-10    3.789921489339452E-10
4.1E-5                    -1.6628272940606944E-9   -8.818876330668923E-10   -1.0748750596583248E-9   -9.963207143993874E-10   4.690450601210417E-9     2.8156219810855633E-9    2.6547198669411E-9       3.4724415927177535E-9    8.353375036992318E-10    6.674331166145564E-10    4.780508094647268E-10
4.15E-5                   -1.2643685418524168E-9   -4.27685557539646E-10    -8.025271233330061E-10   -8.960396381608291E-10   3.799176766986095E-9     1.5992049776900476E-9    1.5174086584023402E-9    2.7332757967638773E-9    8.272692779873076E-10    7.262087016695091E-10    5.783229156199055E-10
4.2E-5                    -7.482087563972966E-10   1.2290011674319707E-10   -4.5246182772840347E-10  -7.406223309244503E-10   2.605675082496731E-9     1.1227893116726193E-10   1.2413634219988858E-10   1.7617561748141533E-9    7.833631726365045E-10    7.667112222294922E-10    6.764250007796479E-10
4.2499999999999996E-5     -1.2031661778993265E-10  7.58531672544911E-10     -2.616719282703573E-11   -5.272002373336756E-10   1.104207743212951E-9     -1.6331887448317255E-9   -1.5137400160308543E-9   5.579170734332059E-10    6.990920416829186E-10    7.840625558264339E-10    7.680840204346497E-10
4.2999999999999995E-5     6.066127423631467E-10    1.4604821346057099E-9    4.732395698831037E-10    -2.5274982201470225E-10  -6.976521473295803E-10   -3.6129965222786254E-9   -3.3726098607011814E-9   -8.690629932010126E-10   5.705490464865405E-10    7.737584140642429E-10    8.478468696635138E-10
4.35E-5                   1.4161545452076225E-9    2.2066856162605277E-9    1.03952040987246E-9      8.42471372164611E-11     -2.777611033846932E-9    -5.789285733556027E-9    -5.4161287221577665E-9   -2.49952829533899E-9     3.9481701660166804E-10   7.314432870978542E-10    9.095785400825057E-10
4.4E-5                    2.289617826724086E-9     2.974762806440912E-9     1.6617638336599844E-9    4.807827128295699E-10    -5.098928943334169E-9    -8.109845977642474E-9    -7.595273667125451E-9    -4.303197301335345E-9    1.7037756341648674E-10   6.527324279414648E-10    9.472304514890976E-10
4.45E-5                   3.205228379621851E-9     3.742261882341268E-9     2.3231185600633785E-9    9.281912431615846E-10    -7.610871182336623E-9    -1.050809577090359E-8    -9.848882949588464E-9    -6.2398893139948176E-9   -1.0260329787007489E-10  5.33345836596913E-10     9.551038554931517E-10
4.4999999999999996E-5     4.136576421921536E-9     4.485207639134592E-9     3.0006170249964996E-9    1.4139149315050305E-9    -1.0248556904105055E-8   -1.2904625534147632E-8   -1.210478453793482E-8    -8.259477826522898E-9    -4.2188402910182564E-10  3.6945846091366534E-10   9.275641675470802E-10
4.5499999999999995E-5     5.051982582413118E-9     5.176187118319146E-9     3.666739331345206E-9     1.923913488312724E-9     -1.2932979221944006E-8   -1.5210043047948443E-8   -1.4281083378576011E-8   -1.0300983611114254E-8   -7.824011675926648E-10   1.5822379185579266E-10   8.588473836971965E-10
4.6E-5                    5.915192705250269E-9     5.782455742454847E-9     4.291746759865681E-9     2.4430802202037672E-9    -1.5572019342104658E-8   -1.7327207566263998E-8   -1.628731881449917E-8    -1.2292713822357292E-8   -1.175628829004214E-9    -1.0137213930500117E-10  7.433878706120654E-10
4.65E-5                   6.686977306487142E-9     6.26540588597551E-9      4.844900496944385E-9     2.953472227281211E-9     -1.806241356082117E-8    -1.915245879474691E-8    -1.8026243113271245E-8   -1.4154492519937267E-8   -1.5898364220324592E-9   -4.074796237071766E-10   5.764526980701886E-10
4.7E-5                    7.327066397520601E-9     6.583280120860984E-9     5.294245595012163E-9     3.432566104709999E-9     -2.0292481365516056E-8   -2.0578134191740688E-8   -1.9397137151612262E-8   -1.580074884522471E-8    -2.011144312263567E-9    -7.548339375939204E-10   3.546776186867297E-10
4.7499999999999996E-5     7.79606245577405E-9      6.6967613405260485E-9    5.606740103363777E-9     3.853793419875948E-9     -2.2145617806071336E-8   -2.149780825089334E-8    -2.0300349314878078E-8   -1.7143056591907902E-8   -2.4243179782042445E-9   -1.1350810151367003E-9   7.63810232763531E-11
4.8E-5                    8.057511442441014E-9     6.5742601978265276E-9    5.750252560014482E-9     4.189325299879847E-9     -2.3504296881727667E-8   -2.1812411301014826E-8   -2.0641890623217638E-8   -1.8092519944071805E-8   -2.8126744156395275E-9   -1.5374945825756688E-9   -2.5826566347622785E-10
4.85E-5                   8.080596293337692E-9     6.194235234321317E-9     5.696723511211161E-9     4.412840919373315E-9     -2.4254328651720982E-8   -2.1434796362481573E-8   -2.0337503626585976E-8   -1.856321799658199E-8    -3.1576446807632842E-9   -1.949358444726147E-9    -6.471119337960729E-10