% Model:              Untitled.mph
% Version:            COMSOL 6.0.0.405
% Date:               Jul 16 2025, 16:55
% Dimension:          1
% Nodes:              401
% Expressions:        11
% Description:        Point graph
% Time (s)                Displacement field, Y component Displacement field, Y component Displacement field, Y component Displacement field, Y component Displacement field, Y component Displacement field, Y component Displacement field, Y component Displacement field, Y component Displacement field, Y component Displacement field, Y component Displacement field, Y component
0                         4.2366203445539856E-33   -3.809849799209571E-33   8.347627159874584E-33    9.077550938241093E-35    4.17914093985449E-34     2.20954284168619E-34     5.540229237060317E-35    2.421431768426595E-35    7.58435606648573E-36     1.4500794883738494E-37   -7.336216002876904E-39
5.0E-7                    1.686715775372758E-24    1.5903603516681134E-24   -9.719343067483401E-25   -1.7257784889172172E-25  -4.7514281561377747E-26  -3.039971841220863E-26   -2.4326409074698172E-27  -1.4594291340259697E-27  1.2161138904139093E-28   -4.222166795565293E-29   -1.0660921815277258E-29
1.0E-6                    3.422756708858903E-25    4.522911989287613E-24    3.513977022902618E-24    4.278735919802693E-25    1.0930095638819974E-26   -2.381062864382113E-25   -6.042550522578178E-26   -2.3746815184982768E-26  -9.140760333664776E-27   2.0340555478865914E-28   1.2946210398905729E-28
1.5E-6                    -1.0477775119727137E-23  -1.3037671096093077E-23  2.5651748028719838E-24   7.111934758223761E-25    2.426324925179877E-25    2.5518132609024725E-24   3.814275680466609E-25    1.715291191991341E-25    4.365650992093724E-26    -7.659796616973373E-28   -5.421218234899496E-28
2.0E-6                    6.606548576768938E-23    4.599639095367412E-23    -3.007130299367089E-23   -4.3873494993933445E-24  7.243384008898363E-26    -1.0947522483270195E-23  -1.2985129375128867E-24  -5.7587320751808E-25     -1.3102865056875652E-25  2.5697534297741412E-27   1.2069892691460514E-27
2.4999999999999998E-6     2.933227688646555E-23    2.716603895639018E-22    1.0318269183496233E-22   3.345325981570264E-24    -7.967288862548663E-24   2.274911068200527E-23    2.6466669756385303E-24   7.026086631871006E-25    2.151645947183811E-25    -1.5632939135680318E-27  -1.952762216525442E-27
3.0E-6                    1.8664576728845216E-23   -6.493545394594297E-22   5.606927614371684E-22    1.88152792184246E-23     3.0418708640658953E-24   5.143894782830841E-23    2.9238287988924846E-24   2.7086428726638118E-24   3.1604156654002213E-25   -3.3425136070050016E-26  9.462241623704875E-29
3.5E-6                    1.2603133644581143E-21   -7.667130276406448E-22   -8.29926939122168E-22    -2.607004395880829E-23   1.0209855374102834E-22   -4.0631264907339062E-22  -4.090058796675262E-23   -1.3265364380977073E-23  -2.066532028170941E-24   1.0717231723396556E-25   1.8970473514057755E-26
4.0E-6                    2.338068021622917E-21    1.0251056558578734E-20   -4.39258940824674E-21    2.8528971659083964E-22   -5.487894344237285E-23   2.0217011137597112E-22   5.169519381465994E-23    3.5506386346474607E-25   2.8574614753272924E-24   5.765188962480605E-28    -4.982997297454401E-26
4.5E-6                    3.82375271663397E-21     6.4573692790355204E-21   8.591188084152552E-21    7.485629456101048E-22    -7.434845647274809E-22   3.724715237160529E-21    3.2863219744757275E-22   1.1692873580155005E-22   8.787865707930725E-24    -7.862330137155956E-25   -6.805241575144277E-26
4.9999999999999996E-6     3.406564760608077E-20    -7.435348376868319E-20   5.228135136799786E-20    -3.349619201367162E-21   -3.9125703865629845E-22  -3.756079584650496E-21   -6.703770762869057E-22   -9.600605476955122E-23   -3.794955048259105E-23   1.4932213167991516E-24   4.626086054856107E-25
5.5E-6                    8.220792979510182E-20    -3.988959487237492E-20   4.1788924972202267E-20   -9.531310116130182E-21   3.3405577220705717E-21   -2.5088218171137916E-20  -2.1425121555751827E-21  -7.135589329348486E-22   -1.3169537800350682E-23  3.351372004361732E-24    2.0792782651493538E-27
6.0E-6                    1.57149533321385E-20     5.294403462823022E-19    -1.4373977494685445E-19  2.170460984180279E-20    8.760064854458864E-21    2.3925593364960657E-20   4.402138075435329E-21    6.757314160997489E-22    2.9603680638925224E-22   -1.52494582846944E-23    -3.0012513667603758E-24
6.5E-6                    3.4882855525706165E-20   7.917409189163991E-19    -1.4014602193332087E-19  1.0780305292301453E-19   -4.9339702805950806E-21  1.4781659814900944E-19   1.2584823750968734E-20   3.699243833833793E-21    5.398264756948006E-23    -1.330080622323912E-23   8.808911911276466E-25
7.0E-6                    9.02699048631574E-19     -1.6297645207336464E-18  1.1459491995947306E-18   2.6625145063177777E-20   -6.650586435871004E-20   -5.012733956697382E-20   -1.8773566886493197E-20  -1.9154308104585214E-21  -1.612208085789241E-21   8.759597705160604E-23    1.679930481219513E-23
7.499999999999999E-6      2.575888902878098E-18    -4.518240530050984E-18   3.4679529032316883E-18   -4.344487287808105E-19   -4.642981454378418E-20   -6.710176616008603E-19   -6.681514640874397E-20   -1.5711970824473257E-20  -9.695465212558522E-22   6.523020241236795E-23    9.129318523819925E-25
8.0E-6                    4.386038388518311E-18    3.160978841617639E-18    2.050305511738291E-18    -1.0646055503568988E-19  3.687822338249853E-19    -1.6996077433262942E-19  4.3308606343548444E-20   -1.0060725464539194E-21  6.367654401647614E-21    -3.222041030999742E-22   -8.070731676002783E-23
8.5E-6                    8.366507883596232E-18    2.3769746083672726E-17   -6.625218401333181E-18   2.8830401954020073E-18   7.219216447717486E-19    2.543136974671454E-18    2.922949667484606E-19    5.431384015734518E-20    8.869648215684564E-21    -2.8205870866514906E-22  -6.887147396692952E-23
9.0E-6                    1.6812089094017916E-17   2.8496017363457135E-17   -5.4746234076537455E-18  4.561015419692553E-18    -8.141107368384369E-19   2.91407212087145E-18     5.2389180291690174E-20   4.718963186219355E-20    -1.360244388560673E-20   6.263338497621001E-22    2.711255703351498E-22
9.499999999999999E-6      2.898864532330191E-17    -1.1516006831383649E-17  4.132230971531521E-17    -4.780692169389321E-18   -3.568229447998688E-18   -5.233738957943582E-18   -9.673231838535871E-19   -1.0959962828593642E-19  -4.217003357018109E-20   3.2116010250368586E-22   5.779495992267715E-22
9.999999999999999E-6      6.528086890304999E-17    -4.850702025407968E-17   1.215282146165256E-16    -1.541936832026742E-17   3.6347535186857017E-19   -1.3098189865735663E-17  -1.0059364693682424E-18  -2.117063483776241E-19   -1.0213220749804645E-20  1.3014086529781286E-22   -2.929018486486012E-22
1.05E-5                   2.005861974453171E-16    5.204075976974179E-17    1.253536180302648E-16    1.7213341075262545E-17   1.5619437647094737E-17   3.310857180327913E-18    2.0496089810681018E-18   1.0108023757523757E-19   1.1416461991138445E-19   5.497894170922073E-21    -2.562303875046185E-21
1.1E-5                    5.460559572551516E-16    4.0073532619717943E-16   1.3940866856074838E-17   1.0468476084887137E-16   2.0844993482853993E-17   4.460446498357699E-17    4.9733281277939064E-18   7.167955578878648E-19    2.295122849875025E-19    -1.2014339335956122E-21  -2.9417960763633853E-21
1.15E-5                   1.1724402442236569E-15   9.11270670103325E-16     1.1748661748838058E-16   1.282730424948716E-16    -1.732647898124292E-17   5.563795915194868E-17    -6.421916544969535E-19   7.149182337055019E-19    2.925735681593082E-20    -4.670066717058382E-20   4.5294329910294924E-21
1.2E-5                    1.9000233336806714E-15   1.1479523875993334E-15   9.427841639613766E-16    -5.391299282633342E-17   -6.791930478666566E-17   -2.3399471338682897E-17  -1.4223551092880683E-17  -8.007406648474721E-19   -7.846746482555582E-19   -4.218500519532528E-20   1.8628018259867848E-20
1.2499999999999999E-5     2.155277141597872E-15    6.987448101004076E-16    2.3107353531283212E-15   -2.290401485376102E-16   5.065468352957005E-18    -1.3045243824244717E-16  -1.3845689728747154E-17  -2.2801320055427375E-18  -1.3882953446888915E-18  1.7939942750220458E-19   1.5263475607864437E-20
1.3E-5                    2.537786324950757E-15    1.121677163800768E-15    3.286400528681125E-15    3.3314830844374897E-16   2.989399283295758E-16    -4.2742256068818575E-17  2.1535638250055313E-17   1.5246493300015768E-18   8.293895242093436E-19    3.812734610623012E-19    -4.075130435695917E-20
1.35E-5                   8.6664604906176E-15      8.108427955905642E-15    4.288259999138031E-15    2.166163735547134E-15    5.83781219103919E-16     3.840814580025946E-16    6.014231139575574E-17    1.1989527589467857E-17   6.328085065797738E-18    -2.0404375139940704E-19  -1.188135305842931E-19
1.4E-5                    2.989095112385316E-14    2.7120367036647135E-14   9.266321156903684E-15    4.329043819676684E-15    2.762825076829809E-16    8.638705118743021E-16    1.9208595307312145E-17   1.352727710010887E-17    7.148430000722314E-18    -1.5167171257500098E-18  -6.085652020808528E-20
1.45E-5                   6.471001676756637E-14    5.0962058192153245E-14   2.425696938975212E-14    4.486228139587013E-15    -7.331116054736208E-16   8.413981095986308E-16    -1.1020279611611628E-16  -1.218507055745485E-17   -6.745849149300828E-18   -1.3516176663823233E-18  2.600004667367973E-19
1.4999999999999999E-5     9.284345648050572E-14    6.347086590923782E-14    5.3516887547220315E-14   2.3750536563065686E-15   -7.441268695821301E-16   3.916095972639666E-16    -1.4921669027845542E-16  -2.848794232945383E-17   -2.5567834091072114E-17  2.524573173019662E-18    5.913541611431557E-19
1.55E-5                   1.1781771191378347E-13   8.876660261701604E-14    9.984570033949544E-14    4.791431244420701E-15    3.122983804806822E-15    8.460916848826379E-16    1.0022095040727992E-16   6.373604772266977E-17    -1.6802559631597774E-17  7.74946055280775E-18     2.8524830447671696E-19
1.6E-5                    2.438048679369719E-13    2.3905697903979715E-13   1.7613638451654432E-13   2.4532301939567934E-14   1.0514880671265738E-14   3.9379184105401325E-15   4.673953139925254E-16    2.591158925432286E-16    3.560802858576873E-17    6.5004548038162045E-18   -9.95367615656367E-19
1.6499999999999998E-5     6.563083447865989E-13    6.333398918542561E-13    3.2753772102377757E-13   7.04357436952582E-14     1.483704825108767E-14    9.959268448113715E-15    4.0551904258028795E-16   2.903849429102152E-16    1.0609123659437743E-16   -7.706944420776198E-18   -2.413013102394069E-18
1.7E-5                    1.4161836653372903E-12   1.197557354528063E-12    6.347267072813131E-13    1.4500429426944581E-13   1.0725982585833699E-14   1.7271088731651363E-14   -2.500954453982591E-16   -1.1489575443509347E-17  1.646599911934488E-16    -2.7495701283226335E-17  -1.9723866533968E-18
1.75E-5                   2.2835139425145822E-12   1.6815241190701624E-12   1.154010255532163E-12    2.650826153755304E-13    7.954283744667607E-15    2.5801551622559408E-14   -4.740321393288365E-16   5.3806167882435927E-17   1.8041645584908871E-16   -2.1702977099145385E-17  2.201046752345801E-18
1.8E-5                    3.0465012582776864E-12   2.1966836115113244E-12   1.8652998833873182E-12   4.726070866941646E-13    3.2637149996226275E-14   4.446314026770998E-14    1.4284870315815125E-15   1.8012115866287947E-15   4.791555523134592E-17    4.910111811774874E-17    9.433823539989502E-18
1.85E-5                   4.477860337185253E-12    3.8568836703350036E-12   2.8797086076296563E-12   7.944897501770209E-13    1.1165917392749837E-13   9.48204675687876E-14     5.530471109105813E-15    5.011492445212427E-15    -2.433863653437671E-16   1.7441127677470422E-16   1.3527955322553283E-17
1.8999999999999998E-5     9.035218026548899E-12    8.516435641079502E-12    4.9652609087845574E-12   1.2425361590627845E-12   2.6098082315486397E-13   1.9822230005127447E-13   8.181487937170108E-15    6.68234024309954E-15     -1.9130643364293604E-17  2.5054157903773503E-16   3.1136183529102682E-18
1.95E-5                   1.9835654783248302E-11   1.735675941261795E-11    9.745313965174854E-12    2.0244134820001264E-12   4.793221116994713E-13    3.510574986839613E-13    4.5312027112244055E-15   5.029154110076345E-15    2.128440101066257E-15    1.7392558296504786E-16   -2.6806112969844463E-17
1.9999999999999998E-5     3.7696200019512654E-11   2.964711246358205E-11    1.8691395481506342E-11   3.845273273573098E-12    7.319106002752727E-13    5.31587582540276E-13     -1.5467226271116824E-15  6.515314047520509E-15    6.580059444431076E-15    6.20890798742328E-17     -5.1975287087546516E-17
2.05E-5                   5.871586405942119E-11    4.3153631185078764E-11   3.128624356397553E-11    7.79141667667157E-12     9.91078428116368E-13     7.845787547581473E-13    1.1950437263224418E-14   2.5351635856305805E-14   1.0532733737115499E-14   3.519767187070426E-16    -1.1927496541130679E-17
2.1E-5                    7.575115822158069E-11    5.5703398306033106E-11   4.432374887326715E-11    1.4589536931569825E-11   1.4483544991875652E-12   1.3406005372157181E-12   7.428303671265217E-14    7.034555109216379E-14    9.904801027534355E-15    1.5689399204126857E-15   1.34447983703251E-16
2.1499999999999997E-5     8.36302624653637E-11     6.5916669611484E-11      5.3685105392101016E-11   2.3932530267863987E-11   2.7579608511389915E-12   2.615808826788869E-12    1.8395103019903982E-13   1.3304259274012586E-13   6.9894295795967845E-15   3.921617528194952E-15    2.9907887016192827E-16
2.2E-5                    8.305996223611324E-11    7.244044576658468E-11    5.712184189330098E-11    3.469359628230997E-11    5.84393142996269E-12     4.9867528493497665E-12   2.832285487614461E-13    1.9874993590090882E-13   1.70423539776014E-14     7.065924376978253E-15    2.5179854035269136E-16
2.2499999999999998E-5     7.856396362772488E-11    7.33104296697925E-11     5.517684895932525E-11    4.5676304729640266E-11   1.1123659945264535E-11   8.482249180376061E-12    3.1331615643258894E-13   2.8042712117602966E-13   6.308326538342254E-14    1.0440439440815863E-14   -9.30235773616863E-17
2.3E-5                    7.2502327939982E-11      6.679457097799177E-11    4.9550939716863876E-11   5.5720183015552034E-11   1.7918899058163433E-11   1.2705212290080025E-11   3.536967346580935E-13    4.458406669264759E-13    1.575063106885236E-13    1.5034726953521995E-14   -2.1335406179192315E-16
2.35E-5                   6.210619989322777E-11    5.261273953497276E-11    4.10950902668738E-11     6.296705950618023E-11    2.4976654232687203E-11   1.709764132352925E-11    7.160312705993317E-13    8.088789966652462E-13    2.8596675693209744E-13   2.705969684529499E-14    9.642997598084156E-16
2.4E-5                    4.256579481711683E-11    3.1676404740858066E-11   2.9378924296204206E-11   6.455078647271236E-11    3.167218411860162E-11    2.126242146948626E-11    1.8228252276618057E-12   1.488875085244763E-12    4.1832015188429266E-13   6.043005970926168E-14    3.886011668778483E-15
2.45E-5                   1.1581474421515375E-11   4.669996865967707E-12    1.3387818240995728E-11   5.7630284256814055E-11   3.8310917069784176E-11   2.4981212901724416E-11   3.881294930052298E-12    2.5669565533709943E-12   5.610991309040734E-13    1.3145146666127868E-13   6.973350950269223E-15
2.4999999999999998E-5     -3.006411140891735E-11   -2.852845438722777E-11   -7.969730280260245E-12   4.095170293679509E-11    4.500294053703316E-11    2.7957713251307575E-11   6.632736446193289E-12    4.057026285242819E-12    8.313485602868539E-13    2.4555698300467267E-13   7.548376547255456E-15
2.55E-5                   -8.104221011371149E-11   -6.802368577966231E-11   -3.570029626428861E-11   1.5440343071331514E-11   5.063327864369945E-11    2.963390150445061E-11    9.486516803237729E-12    5.884577097323667E-12    1.4833726434569843E-12   3.937329234740105E-13    6.319138887012288E-15
2.6E-5                    -1.4074708871048024E-10  -1.1336779507817794E-10  -7.047789528075472E-11   -1.6547053866838626E-11  5.3320844988406915E-11   2.923011324183945E-11    1.1992234698472578E-11   7.871011146625568E-12    2.803756857099755E-12    5.837800496556577E-13    1.1822740377005303E-14
2.65E-5                   -2.0866091063387874E-10  -1.6456818214302742E-10  -1.125525419936304E-10   -5.2427457141004476E-11  5.14628782443526E-11     2.5819869068477452E-11   1.4191472098753825E-11   9.748459216619449E-12    4.868735887394898E-12    9.023929411641636E-13    3.818772106234824E-14
2.7E-5                    -2.8471666814873135E-10  -2.233896444281907E-10   -1.6210064139135687E-10  -9.022232099611828E-11   4.367471019399118E-11    1.837054998048371E-11    1.6438249620989457E-11   1.1227714998624932E-11   7.319881507780902E-12    1.5496217296054304E-12   9.491159064088867E-14
2.7499999999999998E-5     -3.7075386004631934E-10  -2.927634115368813E-10   -2.1938753298449067E-10  -1.2900194191299318E-10  2.8045489307016954E-11   6.023486812639722E-12    1.8836479383354405E-11   1.2089672984634525E-11   9.405352972897483E-12    2.766503603023039E-12    1.7854593219869074E-13
2.8E-5                    -4.693985674405264E-10   -3.740754213495424E-10   -2.8408124931122335E-10  -1.6921131226397953E-10  2.5763874200812773E-12   -1.1325131249798444E-11  2.0900759766767883E-11   1.2225112222448084E-11   1.0378080854192653E-11   4.641055608451146E-12    2.80416975301403E-13
2.8499999999999998E-5     -5.793933793291593E-10   -4.644985870067646E-10   -3.541590768983094E-10   -2.126169850316267E-10   -3.323443111273362E-11   -3.275227981933967E-11   2.181328843818843E-11    1.1576379124174046E-11   9.995545701606328E-12    6.90209208051524E-12     4.129254661942507E-13
2.9E-5                    -6.921968440652736E-10   -5.566974779812693E-10   -4.252760231925617E-10   -2.6134316117931007E-10  -7.789687234324037E-11   -5.69642090774206E-11    2.0963173908565253E-11   1.0024786201912845E-11   8.672644166532872E-12    8.888585631415692E-12    6.377076946657779E-13
2.95E-5                   -7.94537741618778E-10    -6.412443953244493E-10   -4.909711383573742E-10   -3.162865144423648E-10   -1.2935459488251106E-10  -8.343372558303284E-11   1.8159873911348327E-11   7.330765151553826E-12    7.08424918264861E-12     9.81006590768332E-12     1.0694738174776586E-12
2.9999999999999997E-5     -8.750088964150957E-10   -7.099378909681113E-10   -5.441165505789364E-10   -3.761215642259029E-10   -1.861958742215562E-10   -1.1272414162268632E-10  1.335932447943747E-11    3.1949939271944513E-12   5.5210699182356946E-12   9.195293765722959E-12    1.8376389736444134E-12
3.05E-5                   -9.283627758768882E-10   -7.576663133720739E-10   -5.799328071327601E-10   -4.374919221260161E-10   -2.468984695833615E-10   -1.4543191320529948E-10  6.305498665735351E-12    -2.614770779080583E-12   3.5489551743311E-12      7.215598165815852E-12    3.008986441843019E-12
3.1E-5                    -9.540710053658717E-10   -7.818336003907517E-10   -5.987613330138962E-10   -4.954779797623892E-10   -3.0861763613971093E-10  -1.807897877135618E-10   -3.539041511711735E-12   -1.021547285604829E-11   2.381547961719774E-13    4.575224538525763E-12    4.5021575021391864E-12
3.15E-5                   -9.514223412082924E-10   -7.803537083358112E-10   -6.046648428930937E-10   -5.435145989289716E-10   -3.678298520100022E-10   -2.1643115405632317E-10  -1.6839302474813263E-11  -1.9707585580635412E-11  -5.2649655109852035E-12  1.9553598320032295E-12   6.049654719087321E-12
3.2E-5                    -9.154947297316882E-10   -7.499374411645618E-10   -5.987683543049998E-10   -5.736705261464265E-10   -4.220550981200348E-10   -2.4949730621604546E-10  -3.423188438055832E-11   -3.127743948687068E-11   -1.3247271029000176E-11  -6.129463175463386E-13   7.260183912343844E-12
3.25E-5                   -8.363599743778009E-10   -6.854269881868424E-10   -5.730059026364062E-10   -5.784691945520092E-10   -4.698879855629715E-10   -2.7783433395576056E-10  -5.6157021856187254E-11  -4.506185748803363E-11   -2.3256804915943034E-11  -3.9320220007224595E-12  7.77780660259407E-12
3.2999999999999996E-5     -7.01403147220591E-10    -5.798867941184358E-10   -5.117845212083951E-10   -5.531198891210867E-10   -5.090724477967701E-10   -3.00165397495536E-10    -8.260148247643324E-11   -6.076926895319349E-11   -3.42575182213909E-11    -9.148905626818236E-12   7.447157254837176E-12
3.35E-5                   -4.993208712597951E-10   -4.2537383785145894E-10  -4.0139692842129173E-10  -4.956986464708793E-10   -5.355499261416925E-10   -3.15398991182771E-10    -1.1295698238590992E-10  -7.74400737046431E-11    -4.505674571254296E-11   -1.6886961040971635E-11  6.35755755498385E-12
3.4E-5                    -2.2367587583143056E-10  -2.148090347248563E-10   -2.3816190566859876E-10  -4.0520553578911604E-10  -5.451436638252496E-10   -3.2194985160118655E-10  -1.4628312801481856E-10  -9.376596607496008E-11   -5.488927979145656E-11   -2.6624385433754694E-11  4.714751263210173E-12
3.45E-5                   1.2600352070722866E-10   5.552151723771824E-11    -2.7581245261507013E-11  -2.80344368624093E-10    -5.354516955808944E-10   -3.175192947286413E-10   -1.8179725573276395E-10  -1.0886028829498612E-10  -6.383539386863008E-11   -3.681482711452548E-11   2.628097701603505E-12
3.5E-5                    5.459828150329288E-10    3.84780578079695E-10     2.2322341584215754E-10   -1.2068143506110727E-10  -5.047808594115507E-10   -2.9917466816698987E-10  -2.1895537764514734E-10  -1.2277578393484705E-10  -7.265230530309995E-11   -4.573385695653357E-11   -2.7026186459580327E-14
3.5499999999999996E-5     1.03109286818396E-9      7.689925250128389E-10    5.112825433569761E-10    7.20359618410851E-11     -4.4900654787216196E-10  -2.6358832945124535E-10  -2.5680271876066315E-10  -1.3613751975785337E-10  -8.195131092648974E-11   -5.250629994222856E-11   -3.5786565286688183E-12
3.6E-5                    1.5758068105924712E-9    1.2033549263859036E-9    8.371007786074326E-10    2.953954732051903E-10    -3.6047591203176497E-10  -2.0753217420694237E-10  -2.9315820540036877E-10  -1.4906264976899205E-10  -9.128511871545027E-11   -5.759467983081865E-11   -8.40091377461509E-12
3.65E-5                   2.17237081094339E-9      1.6822149923475272E-9    1.2001339976634806E-9    5.498267503467748E-10    -2.308792791557831E-10   -1.285387821075262E-10   -3.2456624055810884E-10  -1.6027847474885077E-10  -9.895818452851195E-11   -6.235063270523006E-11   -1.4742267571532475E-11
3.7E-5                    2.8073475123598496E-9    2.196029087651419E-9     1.5950710517407328E-9    8.398571642439455E-10    -5.534301723463447E-11   -2.532212163391967E-11   -3.471829377614903E-10   -1.6722351175242844E-10  -1.0283670210611318E-10  -6.786546058152154E-11   -2.2615318545230695E-11
3.75E-5                   3.4594447035384165E-9    2.7283299366340445E-9    2.0106480146102906E-9    1.1703889174215753E-9    1.6604509437319906E-10   1.0226031981678339E-10   -3.576611756543E-10      -1.6702940310537843E-10  -1.0154352245878087E-10  -7.388257863884453E-11   -3.175352730213012E-11
3.7999999999999995E-5     4.100454386844981E-9     3.255847644226174E-9     2.430297628511377E-9     1.5399605189680527E-9    4.297371248040503E-10    2.534170065750277E-10    -3.53070673758202E-10    -1.575378205526825E-10   -9.504899101524386E-11   -7.856230500488881E-11   -4.161754035757338E-11
3.85E-5                   4.698421685575522E-9     3.751587290322075E-9     2.833855398295172E-9     1.9358327260077235E-9    7.308513654051095E-10    4.264436282391221E-10    -3.301466989818767E-10   -1.3761113967433E-10     -8.419154345136849E-11   -7.934743242934918E-11   -5.1453735088529637E-11
3.9E-5                    5.220468647271725E-9     4.1881438361426224E-9    3.1996714151540274E-9    2.3344165843755616E-9    1.0641053918975551E-9    6.185900620967253E-10    -2.8516882317251793E-10  -1.0673214417795878E-10  -6.956737563225641E-11   -7.440241046479739E-11   -6.041271667561149E-11
3.95E-5                   5.633477602501102E-9     4.539050214876741E-9     3.5060295575214106E-9    2.7066675350502152E-9    1.4235382281369477E-9    8.259366723789284E-10    -2.1506294132005574E-10  -6.445378377532009E-11   -5.067768583155144E-11   -6.362884785916997E-11   -6.771001856833287E-11
3.9999999999999996E-5     5.902798415454565E-9     4.777893032668339E-9     3.7311870427090974E-9    3.024816045890356E-9     1.8013788022854108E-9    1.043138951281941E-9     -1.1861827976996913E-10  -1.0191391054573377E-11  -2.5907058690611315E-11  -4.847725375380739E-11   -7.27912294596287E-11
4.0499999999999995E-5     5.990509026772648E-9     4.876477796009197E-9     3.852704117818017E-9     3.266463358817023E-9     2.186234284951684E-9     1.262912719243416E-9     3.710832060620789E-12    5.6576796753645883E-11   6.74956138110677E-12     -3.060965271517085E-11   -7.545686916508E-11
4.1E-5                    5.855395601970672E-9     4.804079077007096E-9     3.847233443615265E-9     3.4145599592642924E-9    2.5615412343541387E-9    1.4757300243761975E-9    1.512967149859795E-10    1.3590743951142176E-10   4.870160501851897E-11    -1.0364034054083651E-11  -7.586948267613762E-11
4.15E-5                   5.456638965607346E-9     4.529310821050716E-9     3.6911455176276645E-9    3.4547816262147123E-9    2.9057442008888164E-9    1.670401734869307E-9     3.243036323555068E-10    2.2699821931882134E-10   1.00000073139643E-10     1.37816857823398E-11     -7.432855816934212E-11
4.2E-5                    4.760928758024201E-9     4.024231841570123E-9     3.3619234182587197E-9    3.3729085083503217E-9    3.1943794054967166E-9    1.8353330973235137E-9    5.228374350861343E-10    3.2796871406207957E-10   1.590836946629187E-10    4.425054628059921E-11    -7.079076164559267E-11
4.2499999999999996E-5     3.749008627919225E-9     3.2685765382893274E-9    2.840654876057365E-9     3.153775200647389E-9     3.402535522228273E-9     1.959278970106983E-9     7.451183676835646E-10    4.3596153324766076E-10   2.2313707050658864E-10   8.259144455849683E-11    -6.438958023547884E-11
4.2999999999999995E-5     2.4168414683176336E-9    2.2522821312634636E-9    2.1154897848865206E-9    2.7818385297163137E-9    3.5063579961703284E-9    2.0308697452013896E-9    9.864975715106431E-10    5.475506175678351E-10    2.8894057164999655E-10   1.2824631796645638E-10   -5.3427371085162513E-11
4.35E-5                   7.71398899018039E-10     9.761782638821087E-10    1.184275308635274E-9     2.242726210295694E-9     3.4838155478996204E-9    2.0376578647038438E-9    1.2398758982901019E-9    6.591659257158413E-10    3.5378519268333167E-10   1.7876976123402188E-10   -3.609807244546407E-11
4.4E-5                    -1.1730594963185298E-9   -5.481724516724287E-10   5.43846353350733E-11     1.5252548587094516E-9    3.315484323870304E-9     1.966092147533622E-9     1.4964901472880939E-9    7.671716578573844E-10    4.158638537176488E-10    2.3118495839401624E-10   -1.1557444869305966E-11
4.45E-5                   -3.3928181523842916E-9   -2.2985837626729154E-9   -1.2595200366595762E-9   6.237118552649944E-10    2.985255442908624E-9     1.8029142996655765E-9    1.7461160642612273E-9    8.675392507548212E-10    4.73834424922833E-10     2.832408635381977E-10    1.9518805137025314E-11
4.4999999999999996E-5     -5.8480710158611E-9      -4.241940969996026E-9    -2.736533665067815E-9    -4.597297227194732E-10   2.4804530570867762E-9    1.5372477037957233E-9    1.9768539956269474E-9    9.55421484161586E-10     5.258859947924606E-10    3.3354627286869233E-10   5.5451307943501954E-11
4.5499999999999995E-5     -8.478268274247061E-9    -6.333546471705977E-9    -4.347537814790196E-9    -1.7127982914695541E-9   1.7916582839502477E-9    1.1624099484177118E-9    2.1749511146104177E-9    1.024952985600478E-9     5.690714931517484E-10    3.8065632341074143E-10   9.47879351346367E-11
4.6E-5                    -1.1203387020342046E-8   -8.516467978784392E-9    -6.0522610262246585E-9   -3.111664009455397E-9    9.132833383115351E-10    6.769486959986062E-10    2.324581854308426E-9     1.069344680301848E-9     5.994331269279123E-10    4.221058807876468E-10    1.3722222089597258E-10
4.65E-5                   -1.392889609043996E-8    -1.0721418651064223E-8   -7.798706667401519E-9    -4.6206556581332235E-9   -1.5448371874649763E-10  8.469757915464752E-11    2.407708949594132E-9     1.081204556348623E-9     6.127429800904092E-10    4.542864677295013E-10    1.8343974671687081E-10
4.7E-5                    -1.654991198174108E-8    -1.2867813601965236E-8   -9.525534466255032E-9    -6.193126458251336E-9    -1.4028013269624647E-9   -6.061634962572215E-10   2.4050690930736072E-9    1.0530900921440014E-9    6.052087828872254E-10    4.731629629117601E-10    2.340593557781722E-10
4.7499999999999996E-5     -1.895314689827477E-8    -1.4866469642113824E-8   -1.1165125984191534E-8   -7.773126426631398E-9    -2.811460934977116E-9    -1.3844302894219604E-9   2.2989646509431517E-9    9.78262827567627E-10     5.736788777299388E-10    4.75113447539623E-10     2.885124690778123E-10
4.8E-5                    -2.101870704245801E-8    -1.6623472129278497E-8   -1.2645585448334797E-8   -9.297686809861025E-9    -4.347447106542163E-9    -2.2362880851359864E-9   2.0763957865358553E-9    8.513860117349718E-10    5.154289489497473E-10    4.5734334954401573E-10   3.4457535659875985E-10
4.85E-5                   -2.262371015717584E-8    -1.804364442121632E-8    -1.3892340275772008E-8   -1.0699829562540468E-8   -5.965447702094444E-9    -3.14394628959254E-9     1.7298742462725863E-9    6.68873934897949E-10     4.279436790572236E-10    4.1803264141214654E-10   3.9862659656272913E-10