% Model:              analysis.mph
% Version:            COMSOL 6.0.0.405
% Date:               Jul 19 2023, 11:01
% Dimension:          1
% Nodes:              10001
% Expressions:        11
% Description:        Point graph
% Time (s)                Displacement field, Y component Displacement field, Y component Displacement field, Y component Displacement field, Y component Displacement field, Y component Displacement field, Y component Displacement field, Y component Displacement field, Y component Displacement field, Y component Displacement field, Y component Displacement field, Y component
0                         0                        0                        0                        0                        0                        0                        0                        0                        0                        0                        0
1.0E-6                    -1.2761709550011316E-45  -8.933689395802077E-45   -3.55341604893359E-44    -2.128563260279377E-44   -1.1682241989405175E-44  -2.1406052554322103E-44  -1.210387373664796E-43   -1.3131759557009279E-43  -1.2001903531217013E-44  -3.830212482074863E-45   -2.705124430520718E-46
2.0E-6                    2.0514006429249873E-44   1.254661755353058E-43    5.1201256610978834E-43   2.441934215479758E-43    1.3352521662324768E-43   1.4303639521842103E-43   5.773383273421656E-43    6.792261110289367E-44    1.8174893049245214E-44   1.7765462005834677E-45   -6.203119573526975E-46
3.0E-6                    -2.143685374504008E-43   -1.0352483757365521E-42  -2.9619602766035696E-42  -1.3765822200703735E-42  -7.636424776378682E-43   -3.2742103037336065E-43  -9.90615601321097E-44    1.1965488120048274E-42   7.43298716859898E-44     2.7480442714811365E-44   3.4185585652883588E-46
4.0E-6                    1.0531828837943566E-42   3.86247444057057E-42     6.24784742199663E-42     3.242347420723918E-42    1.9343378835606466E-42   -6.732500250192185E-44   -4.448616770252279E-42   -7.74446371802113E-43    -1.6805163348114009E-43  -2.5199897799773234E-44  7.773547103257846E-46
4.9999999999999996E-6     -2.2287251643232532E-42  -4.432188518888757E-42   7.707744867873086E-42    1.253951717611323E-42    4.772427075072494E-44    1.629027671018357E-42    5.674121466673707E-42    -4.387638805886327E-42   -6.837555004350992E-44   -6.301582029790324E-44   1.6934925690057266E-45
6.0E-6                    -2.3794618027168307E-42  -1.3521148157272472E-41  -6.179429349435352E-41   -2.345301875873849E-41   -1.3322428972076376E-41  -4.1107882752307097E-42  1.4384993312640478E-41   1.4071917215131888E-42   5.632053003747992E-43    8.746072161873081E-44    5.906367707209949E-45
7.0E-6                    2.512662029432134E-41    5.292488058308914E-41    6.622830275616782E-41    3.768144699457696E-41    2.8426321732858515E-41   5.556868972422086E-42    -2.3943155907001967E-41  9.993643615168093E-42    -5.186484313731032E-43   7.264646084718144E-44    6.28954123935243E-45
8.0E-6                    -4.093286462653866E-41   -6.407371592073638E-41   1.7704826650959493E-40   3.1862759184934445E-41   1.1689152203804335E-41   1.3779387859232326E-41   -3.9393381181876667E-41  -3.763895876635248E-42   -2.138772908012717E-42   -2.779910968201434E-43   -1.4766297140957524E-44
9.0E-6                    -8.506687664382825E-41   -6.279261149718858E-41   -4.64287585434869E-40    -1.589842923785334E-40   -1.3662826502206587E-40  -6.786377235741474E-41   6.014670686854561E-41    -1.9267736186990485E-41  2.2000054622408464E-42   -1.1939594403799764E-43  -4.4768150291805185E-44
9.999999999999999E-6      3.613847782895813E-40    5.458231664971587E-40    1.1080434144767112E-40   1.608629124084299E-40    1.6127819731456894E-40   1.785392176940038E-42    1.1291526587934268E-40   2.9685950512636484E-41   9.249349082775036E-42    7.26508900806053E-43     -1.859267573552012E-45
1.1E-5                    4.811954091358442E-41    -8.334778689320762E-40   1.622393536772514E-39    1.925343691596159E-40    3.107419593566786E-40    3.3394797990556088E-40   -1.191575168573139E-40   7.960155742798943E-41    -1.8485445371715313E-43  4.889607727484555E-43    9.262614435981505E-44
1.2E-5                    -1.800393482856409E-39   -1.9616149263960357E-39  -3.7530921836070044E-39  -1.1940322817484402E-39  -1.167933674456894E-39   -1.985060317295403E-40   -3.5381376186539724E-40  -9.452549271848884E-41   -2.828132374202762E-41   -1.4766013758359898E-42  2.3595828589332644E-44
1.3E-5                    8.487813307230008E-40    5.916039183151634E-39    -5.2749061596957036E-39  5.36403213673979E-40     -1.1668436007373215E-40  -1.1977262715114167E-39  1.8249985491813159E-40   -3.810359808653698E-40   -2.6421153512605873E-41  -1.605612597129871E-42   -4.208875031196541E-44
1.4E-5                    7.154027722919415E-39    4.8398508034378124E-39   2.2685006165626008E-38   5.2516436377744325E-39   5.688218324238405E-39    1.2194202135091228E-39   1.1482614188386044E-39   -4.769914210704121E-41   4.662717838898946E-41    3.090816093120742E-42    2.738498401209218E-43
1.4999999999999999E-5     -4.906169397988963E-39   -2.3635307193122044E-38  2.3640705225765097E-38   -1.588398385664484E-39   -2.18314585063499E-39    3.6666948724123365E-39   2.702150148692313E-41    1.0610989862196103E-39   1.0202286450614043E-40   5.971130128450485E-42    -2.5947761718551046E-43
1.6E-5                    -2.555754010329945E-38   -8.990228551011792E-39   -8.889488405798633E-38   -1.8726510667049372E-38  -2.3544474300928363E-38  -5.78516700520523E-39    -3.5232207585983196E-39  1.1920421875766787E-39   -9.391382150546332E-42   -4.5059575040201366E-42  -2.573159604377118E-42
1.7E-5                    1.5816280828788027E-38   7.1341649725592E-38      -1.1464584736616619E-37  -1.0039968971452339E-38  1.0714663156175424E-38   -1.1421920468991003E-38  -2.2683905059220916E-39  -1.2738375975706549E-39  -1.8123331633321684E-40  -2.1216281874982908E-41  -9.407991023561626E-43
1.8E-5                    8.512362890097402E-38    8.798187221897212E-39    2.5025416661133003E-37   5.221557837654259E-38    8.471355141748664E-38    2.368973739014079E-38    8.718806429112414E-39    -3.821318235485291E-39   -1.002261534615811E-40   -1.2129842236187274E-41  9.777653340561453E-42
1.8999999999999998E-5     -2.8241432931452724E-38  -1.8567706089052678E-37  4.619933824870162E-37    9.743835905795985E-38    -3.1316930304166593E-38  4.2300199813524286E-38   1.2471997752477265E-38   -1.5599113940794177E-39  9.4752819643248E-41      3.614304281871338E-41    1.175584553034428E-41
1.9999999999999998E-5     -2.603337475168998E-37   2.2447570080673357E-38   -4.9023383585685745E-37  -9.88815138973863E-38    -2.6550547196756446E-37  -7.775802131028908E-38   -1.453880363395197E-38   4.8556750828437165E-39   -8.442227375587727E-41   7.469339523909549E-41    -1.9890029105990748E-41
2.1E-5                    -2.533799226658321E-38   4.730094248446744E-37    -1.4874266997786782E-36  -4.562851771291953E-37   6.570664016606384E-38    -1.6974592213352997E-37  -4.432883627280925E-38   8.037048862796848E-39    -6.655404116827338E-41   2.7914644567192583E-41   -4.758683944027278E-41
2.2E-5                    6.996050483461438E-37    -1.3307697378789054E-37  4.3742098237624806E-37   5.669862203027081E-38    7.383738243623307E-37    1.7634520618524234E-37   1.6652074413945814E-39   3.228275038943406E-39    1.2425327076525417E-39   -1.1318979930821627E-40  1.6233471406475087E-41
2.3E-5                    4.424096827297775E-37    -1.2643324296647345E-36  3.839389458345518E-36    1.5785007874120647E-36   -8.581662068884363E-38   6.027408127816971E-37    1.1178715039255068E-37   -8.033402420179136E-39   1.808337174292885E-39    -2.2838648717238077E-40  1.2940361077630635E-40
2.4E-5                    -1.5414281846917247E-36  2.098036745848197E-37    1.3657291852755318E-36   4.859778190304442E-37    -1.8674557162430655E-36  -1.552244084704138E-37   8.697053850075297E-38    -2.1283548587602206E-38  -2.3583772236304968E-39  -1.1138856287861006E-40  5.651119840067752E-41
2.4999999999999998E-5     -2.1018352321202524E-36  3.300768960794357E-36    -7.45754504242986E-36    -4.604463895883619E-36   -9.40202732928495E-38    -1.6969218640337585E-36  -1.962215114824195E-37   -1.9927187331435832E-38  -7.541513971377156E-39   2.7993611451657226E-40   -2.6008139579599134E-40
2.6E-5                    2.3669859557178362E-36   7.11080637372268E-37     -8.12835753433642E-36    -2.985167022695663E-36   4.3041633038679755E-36   -6.906978145909816E-37   -3.6610042559922103E-37  2.1159595042653534E-38   -1.9657497837074303E-39  5.256737635168357E-40    -3.4234631566370844E-40
2.7E-5                    6.807108281762883E-36    -7.300587149464774E-36   8.134115117173366E-36    1.17717594534329E-35     1.2350393155281922E-36   3.5633654038014333E-36   1.4786516425285645E-37   7.415444960851149E-38    1.3029021486731282E-38   1.1334953561110223E-40   2.725251893557176E-40
2.8E-5                    -5.102141925646486E-37   -5.453447741436262E-36   2.1236714582591935E-35   1.222007233524689E-35    -8.677491422566781E-36   3.9217377574263555E-36   9.539772084759878E-37    3.4055413924401485E-38   1.3972891206129386E-38   -5.137626524605459E-40   9.452525985655654E-40
2.9E-5                    -1.6412827050462888E-35  1.1692631616529E-35      5.453312561124312E-36    -2.53563235043512E-35    -5.2966352145074807E-36  -4.965687905108873E-36   4.869835493968198E-37    -1.1584256939570317E-37  -8.561850949818942E-39   -2.1614484247318358E-40  2.860074371375381E-40
2.9999999999999997E-5     -1.2151019831140498E-35  1.785808002666973E-35    -2.6750532062856684E-35  -4.050602907979676E-35   1.397437055975726E-35    -1.137537901184874E-35   -1.6494830420492705E-36  -1.4419719088369853E-37  -2.1647780867721648E-38  4.92613338913529E-40     -1.4917893150098983E-39
3.1E-5                    2.7235154937166313E-35   -9.027411222395263E-36   -3.673937942258675E-35   4.0970409008099945E-35   1.4747609273938223E-35   1.900830695193913E-36    -2.444186706856147E-36   1.4028544401164968E-37   1.2950729323751642E-40   -6.317692760752007E-40   -1.6168004132749633E-39
3.2E-5                    5.066004049331055E-35    -3.6169511504752566E-35  -1.0855191620844181E-35  1.0936257379700553E-34   -1.4650115377009527E-35  2.2706603702332644E-35   1.3480094818999497E-36   3.806873178523722E-37    1.931191411525641E-38    -2.557814790475601E-39   1.3900387363464392E-39
3.2999999999999996E-5     -1.502731591049972E-35   -1.2104476594081003E-35  3.82441696022322E-35     -3.279473136993833E-35   -2.711016336058286E-35   1.2549661866968477E-35   6.111792938751224E-36    -3.440845839964721E-38   -1.2842717210435212E-39  2.4569592160297985E-40   3.334085696454847E-39
3.4E-5                    -1.2241853547961133E-34  4.250535269678298E-35    9.271632881128986E-35    -2.3781394476947906E-34  1.4581237088136958E-36   -3.0745496218076897E-35  2.43812878625186E-36     -8.079845396379668E-37   -1.523412403797339E-38   7.077699927920628E-39    -1.0315916173280462E-39
3.5E-5                    -8.18075091955124E-35    4.810594597997766E-35    8.662914742309726E-35    -6.130224072581202E-35   2.395611318435605E-35    -4.3936390833882057E-35  -9.781347329738052E-36   -5.908860659546102E-37   1.3433307593455613E-38   4.890815245530829E-39    -6.630618936410285E-39
3.6E-5                    1.7290577660834742E-34   -9.675074096024103E-36   -7.992603671188048E-35   4.088975697616394E-34    2.17301623366215E-35     1.6835642125329314E-35   -1.2545679429873637E-35  9.942273633735672E-37    -5.916668693278582E-39   -1.1211828631477725E-38  -3.248206081004847E-40
3.7E-5                    3.294123878005332E-34    -5.27183463770542E-35    -3.1835659878556584E-34  3.365243678825914E-34    3.0144526091893753E-35   8.281605229644495E-35    7.492261966063491E-36    1.837578085624991E-36    -1.0066122369637815E-37  -1.6666274037487372E-38  1.5174580787677555E-38
3.7999999999999995E-5     -1.0842208201013258E-35  -4.326283115412147E-35   -2.455268141714878E-34   -5.14216480160371E-34    1.740026940076476E-37    4.299407146405571E-35    2.7620471930548546E-35   -1.605835634111454E-37   -2.034843310662893E-38   1.1973218769949482E-38   1.1426336062168342E-38
3.9E-5                    -6.291052807313462E-34   -3.298667618141417E-35   3.3237138482617213E-34   -8.705875833688504E-34   -1.3695144061493984E-34  -8.435061579922546E-35   9.258421922836829E-36    -2.9846129904612245E-36  3.5557045355528335E-37   4.110397926209202E-38    -2.4626574807329647E-38
3.9999999999999996E-5     -6.18665765231672E-34    -1.3671625718509608E-35  8.160447332471355E-34    2.8863070338013844E-34   -1.8391946691533421E-34  -1.3944393419404525E-34  -3.662745825310149E-35   -1.9377453914966925E-36  4.289510594749601E-37    5.836466956091989E-39    -4.5639758753365185E-38
4.1E-5                    4.738962984038257E-34    1.1960910736790927E-34   2.893145874676985E-34    1.556094191393894E-33    1.4330080671296534E-34   -2.1673502732273634E-35  -4.286814418586384E-35   2.9423198781978124E-36   -4.67912530851138E-37    -7.716553570579104E-38   7.27193725773396E-39
4.2E-5                    1.555515493490757E-33    2.970675864454149E-34    -1.0331498077313883E-33  6.479299428057639E-34    5.574916988715732E-34    1.6726326930032918E-34   1.8727116712505571E-35   4.480911164202315E-36    -1.482938262469406E-36   -8.356499855185876E-38   9.040042138677873E-38
4.2999999999999995E-5     8.617593342556448E-34    1.5204345464176751E-34   -1.474219735273314E-33   -1.792381272774779E-33   2.8949252810540917E-34   2.2390068060111335E-34   7.409881426418378E-35    -1.7145810586551387E-36  -5.652158001962837E-37   5.586926813675932E-38    6.890890828511291E-38
4.4E-5                    -1.5828810400967765E-33  -4.776266932650789E-34   1.0744545061059442E-34   -2.3119239323487457E-33  -7.188817124227597E-34   4.1225719678786234E-35   3.864511136454572E-35    -7.497667384665561E-36   2.2832572937072068E-36   2.0175177651655374E-37   -8.323385182534383E-38
4.4999999999999996E-5     -3.0757866926434087E-33  -9.667287681516862E-34   2.2673825090980925E-33   4.922699451482435E-34    -1.254880559836316E-33   -2.813393623009309E-34   -5.572609193540477E-35   -1.213865110777048E-36   3.27800223914176E-36     1.234370958612296E-37    -1.735954328460103E-37
4.6E-5                    -9.899335031844676E-34   -3.4305998148232446E-34  2.1421919981971063E-33   3.423071580874137E-33    -1.8936119195348833E-34  -4.439167436099478E-34   -9.83471398293741E-35    1.1966735209924186E-35   -7.511291359057903E-37   -1.9510682330643013E-37  -2.9521438819912E-38
4.7E-5                    3.444984680978206E-33    1.3209854919191966E-33   -9.193059683088742E-34   2.6114949263486256E-33   1.767516303795655E-33    -1.4383577931662775E-34  -4.5512736781584933E-35  1.0650755580701138E-35   -6.11493212555233E-36    -4.276261003140074E-37   1.9761278415716058E-37
4.8E-5                    5.3427733303671255E-33   2.2946732996580085E-33   -3.8990446045147966E-33  -1.5188843999061468E-33  2.3206983040546613E-33   5.131012058313958E-34    5.126559062794571E-35    -1.223375133591336E-35   -4.549981825483549E-36   -1.7438493964106409E-37  1.8645851476269053E-37
4.9E-5                    1.3227045196755467E-33   7.355230945965579E-34    -3.20937286393401E-33    -4.803693720412823E-33   2.66559742658368E-35     8.575494390903937E-34    1.3715585206069323E-34   -2.954717373166978E-35   5.150354098357261E-36    5.248160196527531E-37    -7.181563781598649E-38
4.9999999999999996E-5     -5.7681218639229096E-33  -2.7702005351720948E-33  1.1540157267022894E-33   -3.796894572339275E-33   -3.4438582214052055E-33  2.9124223646214797E-34   1.6451391094841878E-34   -9.302607180908613E-36   1.1346672875772264E-35   9.180508479597343E-37    -2.2485949013159377E-37
5.1E-5                    -8.619321886602265E-33   -4.7212498871020414E-33  5.378782904841996E-33    1.3417243971640856E-33   -4.0911018999463204E-33  -8.261228475888057E-34   3.4728290367931945E-35   3.6708733266067145E-35   2.36345776389317E-36     1.2353087441996973E-37   -1.0290930558235189E-37
5.2E-5                    -2.8747776377447815E-33  -1.8196707484487074E-33  5.5953083354509046E-33   6.883499113197319E-33    1.4151504869641384E-34   -1.333906859553975E-33   -2.867241088410711E-34   5.497854650862041E-35    -1.4467223383323258E-35  -1.508228748825123E-36   3.5825261976556644E-38
5.3E-5                    7.468820468086972E-33    4.7693966402937274E-33   1.2435212653290719E-33   7.413169577642406E-33    5.7922814010212246E-33   -5.603854663434202E-34   -5.328795666055095E-34   1.1860705322909111E-35   -1.5795114342950123E-35  -1.901540913077925E-36   3.7335343043006733E-38
5.4E-5                    1.2928607728489537E-32   8.85759684514415E-33     -4.9197922356742775E-33  1.0044977733496423E-34   6.437285612588808E-33    8.562063889354252E-34    -2.448068118005438E-34   -6.075486640335927E-35   7.731144011814096E-36    5.615023939995015E-37    1.8701006547892586E-37
5.4999999999999995E-5     7.340585687376608E-33    4.532994538308667E-33    -8.978487057814543E-33   -1.0463935818399419E-32  2.2812100652728268E-35   1.6585667762505393E-33   6.122580302724959E-34    -9.322206277372111E-35   3.060889916731558E-35    3.828976064521947E-36    5.250528663941116E-37
5.6E-5                    -6.016890951270941E-33   -6.779713415056117E-33   -7.879341915591077E-33   -1.370136503703227E-32   -7.804004363485094E-33   1.1747532527483265E-33   1.2416922518790379E-33   -4.311173896085527E-35   1.7508178322892627E-35   3.054095007934353E-36    3.0200211526710094E-37
5.6999999999999996E-5     -1.680885031756423E-32   -1.517079606680858E-32   -9.081557469272122E-34   -3.2644284058978424E-33  -9.228133154049131E-33   -3.0027069751555903E-34  6.6238432723659795E-34   6.852572825438324E-35    -2.6463360723942357E-35  -3.004089131843511E-36   -9.437351031021704E-37
5.8E-5                    -1.5984516489294388E-32  -1.0373755492387661E-32  9.111115129856201E-33    1.3882193581619824E-32   -2.2680569749485887E-33  -1.814902753791082E-33   -1.0009194202596869E-33  1.607759819689637E-34    -4.821241201635999E-35   -7.758562344962198E-36   -1.9473409506367175E-36
5.9E-5                    -2.6576104293770914E-33  7.081314948770064E-33    1.605618945634322E-32    2.1740133600794092E-32   7.633411408570373E-33    -2.1920916179666653E-33  -2.2049923418764926E-33  1.290823753221276E-34    -8.845219895547127E-36   -3.299697120703725E-36   -7.1111405416572544E-37
5.9999999999999995E-5     1.528655202831787E-32    2.315926869978569E-32    1.3630923432795046E-32   1.0502796938316692E-32   1.2617994004667213E-32   -8.20411848554729E-34    -1.4618663871983839E-33  -6.476535322534222E-35   5.434401461155812E-35    7.796758297634091E-36    2.4902753648931977E-36
6.1E-5                    2.6106111277264396E-32   2.119180481910797E-32    3.254326308650107E-34    -1.2985574979736543E-32  8.153793789216707E-33    1.4114270350512655E-33   8.865545451019801E-34    -2.907167211611036E-34   5.79328252433458E-35     1.222299847366502E-35    4.2934389088245107E-36
6.2E-5                    2.1107796540933818E-32   -1.9262925066545394E-33  -1.7537942881228882E-32  -3.0111389188771935E-32  -3.931960775541588E-33   2.520032164285913E-33    2.8033935569896473E-33   -2.9752945350207954E-34  -2.2627700286315277E-35  1.9706732398464215E-36   1.734664945104735E-36
6.3E-5                    2.8701044255801437E-34   -2.9647425896949175E-32  -2.814604849131237E-32   -2.562305561285929E-32   -1.5745346588926334E-32  1.4855130453017467E-33   2.5898347530790796E-33   2.61210789117472E-35     -1.0214636945978672E-34  -1.2866141006528988E-35  -3.7725074315670696E-36
6.4E-5                    -2.602149995481631E-32   -3.758878967263114E-32   -2.1813288024885623E-32  -9.631944037975122E-35   -1.7788687907517051E-32  -5.117521990486675E-34   4.532875325920151E-34    4.341332285306556E-34    -7.137562352986996E-35   -1.4310011528942095E-35  -7.100808050186144E-36
6.5E-5                    -4.1521940895071277E-32  -1.456849116664818E-32   8.104043069084319E-34    2.917651984681164E-32    -6.28795220084771E-33    -1.6302371847071453E-33  -1.9953480674073412E-33  4.907308927276202E-34    6.603612844512442E-35    7.407920575180082E-37    -4.386782725417673E-36
6.599999999999999E-5      -3.346785533686905E-32   2.5593671968415096E-32   2.667874059150009E-32    3.972667759693215E-32    1.2284076165147653E-32   -1.626806958278359E-33   -3.2745806439275235E-33  3.9628613698526024E-35   1.6986015807842715E-34   1.5273805204427052E-35   2.9211711780355393E-36
6.7E-5                    -2.0191537345090234E-33  5.296022966174703E-32    3.779251471114924E-32    2.0842495526825448E-32   2.460257518773389E-32    -1.5702663544318495E-33  -2.8057532082733997E-33  -5.457812922982278E-34   1.0056943076652463E-34   1.23406691927436E-35     8.884888513779687E-36
6.8E-5                    3.740520357067731E-32    4.4499963554763925E-32   2.3839030823024343E-32   -1.681486383191793E-32   2.02734944090074E-32     -1.7071332234027865E-33  -7.91759412550235E-34    -6.67727056659534E-34    -1.1596392412303588E-34  -5.199963262043313E-36   8.016777425075266E-36
6.9E-5                    6.180122367840062E-32    2.2512220525982798E-33   -9.69436182140105E-33    -4.838262637177708E-32   3.919894044306848E-34    -1.0258546581826023E-33  1.922978640457443E-33    -9.255446257729167E-35   -2.763140343033163E-34   -1.8448993868085046E-35  3.91988710632265E-37
7.0E-5                    5.445505823830134E-32    -4.789042935337237E-32   -4.4658475271766005E-32  -5.427544182353364E-32   -2.267353952943364E-32   8.318045261306741E-34    3.983234644925684E-33    7.484454589445588E-34    -1.8173903542486782E-34  -1.1769428716197336E-35  -7.591847821968481E-36
7.099999999999999E-5      1.622412407481171E-32    -7.458819062696243E-32   -6.207405953786251E-32   -3.559454385536911E-32   -3.4906874402812716E-32  2.3973953175373877E-33   4.157661556870565E-33    1.0548657765888026E-33   1.4367957072862913E-34   1.2624342670747604E-35   -8.758635254637692E-36
7.2E-5                    -3.3973115761562093E-32  -6.135194034146283E-32   -5.359930999738854E-32   -1.2719636971806886E-32  -3.124490415465039E-32   1.6648075028212324E-33   2.1264872321895406E-33   3.734362131388912E-34    4.303485726696629E-34    3.215031695413122E-35    -2.703027883024556E-36
7.3E-5                    -7.081187336164245E-32   -1.460075779346269E-32   -2.5459986737831295E-32  -9.262177215881232E-33   -1.7134078897012675E-32  -2.0626248291212345E-33  -1.3687748329029278E-33  -8.458441050242831E-34   3.987978762292779E-34    1.659734134500664E-35    3.3288266896216425E-36
7.4E-5                    -7.831847658203351E-32   4.270647166971009E-32    5.6937020266077426E-33   -3.4584001923197055E-32  -1.0938041182186389E-33  -7.733560177410904E-33   -4.9163675397156566E-33  -1.496599403836379E-33   3.248696881869302E-35    -3.8981141003338165E-35  2.9887101144132657E-36
7.5E-5                    -5.753918286286988E-32   8.402120411977019E-32    2.0998344637124707E-32   -7.796634684473763E-32   1.1505503427133438E-32   -1.3014304383284268E-32  -6.82729934569615E-33    -8.66429512844528E-34    -4.034297857971267E-34   -8.45248935856586E-35    -8.9331028002983E-37
7.599999999999999E-5      -2.067316327097315E-32   9.025350445172859E-32    7.27552410894261E-33     -1.188050112534867E-31   1.713998481577353E-32    -1.4802148501371003E-32  -5.740675943214392E-33   5.330699230722908E-34    -6.068683047107827E-34   -4.284805954609716E-35   -5.273562896523367E-38
7.7E-5                    2.1014816717744663E-32   5.566878394038479E-32    -3.8276862400551245E-32  -1.4439523346735904E-31  1.0910753724387617E-32   -1.0365200864564394E-32  -1.7004445311357978E-33  1.4390123785917994E-33   -4.592579900589968E-34   9.735828295220044E-35    6.766437253017847E-36
7.8E-5                    6.266302454766892E-32    -1.1408003860133195E-32  -1.0779170119358718E-31  -1.5855611398723598E-31  -1.1687578981571761E-32  6.299553261907196E-34    3.288939984413769E-33    1.2051417218172001E-33   -2.5458258133032216E-35  2.217502599768477E-34    9.755335230022309E-36
7.9E-5                    1.003058846900016E-31    -9.353852085254778E-32   -1.8602099367145225E-31  -1.7193714081102736E-31  -5.115968735515367E-32   1.4683041128890484E-32   6.402746077422827E-33    3.703348426752752E-34    5.342118010563529E-34    1.7225038280529903E-34   5.889247929143945E-37
7.999999999999999E-5      1.2302597402580975E-31   -1.7379043413038772E-31  -2.545807423742981E-31   -1.8460274940708758E-31  -1.0478279595555016E-31  2.510943306463845E-32    6.105658902767852E-33    -3.122558867810711E-34   9.604086276754352E-34    -7.666461303765277E-35   -1.343374248502327E-35
8.099999999999999E-5      1.1375006712860767E-31   -2.4353377508802594E-31  -2.944340353098805E-31   -1.8024424995559133E-31  -1.6926819295909961E-31  2.4524222725083442E-32   3.160148754431187E-33    -9.617616639740666E-34   9.120580038889755E-34    -3.415229027599925E-34   -1.4777163951641632E-35
8.2E-5                    5.937239013786962E-32    -2.9985075484464137E-31  -2.8614927890054154E-31  -1.3691883314543213E-31  -2.3959809870113336E-31  8.075430242256973E-33    -3.0008706488699545E-34  -2.115267302021718E-33   2.077268140159163E-34    -3.712301387288189E-34   1.9756854232391525E-36
8.3E-5                    -3.916103121115998E-32   -3.3301599757144033E-31  -2.105868488286002E-31   -4.1332845859003096E-32  -3.0723512925453557E-31  -2.33834563454204E-32    -2.4655993722908724E-33  -3.337997384229048E-33   -8.693303489733642E-34   -8.664562707576992E-35   1.8789017966693413E-35
8.4E-5                    -1.6520826810086657E-31  -3.1765683007773934E-31  -5.352704361007427E-32   1.045174521883481E-31    -3.644714006575448E-31   -6.172512157752405E-32   -2.8588426714432733E-33  -3.0355712050675573E-33  -1.6441140756227438E-33  3.1905597354758407E-34   1.2756750119477685E-35
8.499999999999999E-5      -2.9296040533540097E-31  -2.2118324807171373E-31  1.8580880961754782E-31   2.823455732581983E-31    -4.113041177272648E-31   -9.417948845322614E-32   -2.244386761213422E-33   -7.44923005798809E-35    -1.5907189121568917E-33  5.219988394071135E-34    -1.4412319567204906E-35
8.599999999999999E-5      -3.95680772351384E-31    -2.558802952462777E-32   4.879105246911841E-31    4.580368783891297E-31    -4.552242150443429E-31   -1.1056060364402156E-31  -1.7853726376115212E-33  4.643047011548714E-33    -8.030527790136471E-34   3.304573843177506E-34    -3.3587607723621074E-35
8.7E-5                    -4.4994787724167185E-31  2.570056511955291E-31    8.143575074130453E-31    5.868552454870977E-31    -5.0480985142176385E-31  -1.1043438566968086E-31  -1.97737910709379E-33    8.464884860791455E-33    1.7372700392860382E-34   -1.4668108837686044E-34  -1.9199183649374486E-35
8.8E-5                    -4.351912319990514E-31   5.885068422162303E-31    1.1176223655084882E-30   6.256433716317272E-31    -5.673794729902998E-31   -1.0395009210865366E-31  -2.040071564750226E-33   8.725368856623652E-33    9.851654636428805E-34    -5.6467356511511215E-34  2.2316110614863272E-35
8.9E-5                    -3.327797252374783E-31   9.21176507446062E-31     1.3522507893007262E-30   5.4480248888237985E-31   -6.527631092124599E-31   -1.052552981065188E-31   -4.46408332048692E-34    4.3136989622120816E-33   1.779703862206493E-33    -6.084700194107495E-34   5.933029937806451E-35
8.999999999999999E-5      -1.3024757648864674E-31  1.2089363007765025E-30   1.4807288351770357E-30   3.3203919515765437E-31   -7.73459940126083E-31    -1.2388356708454664E-31  3.358029813192635E-33    -3.658137598601669E-33   2.706814107317315E-33    -2.5548856657285664E-34  6.266156402104792E-35
9.099999999999999E-5      1.684178385746715E-31    1.4081014948841365E-30   1.473945177180303E-30    -9.871043525691874E-33   -9.356935112945875E-31   -1.6036869458686243E-31  7.171837161497588E-33    -1.193663870316114E-32   3.1528163812205774E-33   2.037535638866354E-34    1.862231081504029E-35
9.2E-5                    5.334200438603833E-31    1.4760027993563508E-30   1.3097163111152984E-30   -4.6399842481445285E-31  -1.1291784989905834E-30  -2.0821501224626327E-31  6.089665446458347E-33    -1.6152600287122682E-32  1.8382501152552614E-33   4.249407222021271E-34    -7.160032981577704E-35
9.3E-5                    9.106421658470847E-31    1.3740946933641279E-30   9.705221944160606E-31    -9.986647518866942E-31   -1.326452027445777E-30   -2.5977694446657276E-31  -4.639054008469405E-33   -1.3008134258528956E-32  -1.8589666799833663E-33  2.997993534188029E-34    -1.7644498870232913E-34
9.4E-5                    1.2366757125012535E-30   1.0724100086651153E-30   4.408060363449114E-31    -1.5718916534859522E-30  -1.4932633802263104E-30  -3.1084182035619677E-31  -2.5562467411851686E-32  -2.5282352986007268E-33  -6.516003859797228E-33   -2.588952037192491E-36   -2.120987835081686E-34
9.499999999999999E-5      1.4585884810033605E-30   5.528011451906106E-31    -2.913033962986724E-31   -2.142724135593261E-30   -1.6021281896855993E-30  -3.596183629177081E-31   -5.124874917250017E-32   1.1488152796204347E-32   -8.94315747393598E-33    -2.2545738521294045E-34  -7.49227972581337E-35
9.6E-5                    1.5454190365682153E-30   -1.83247440638881E-31    -1.2216518792188329E-30  -2.6815250914092964E-30  -1.6397241831946953E-30  -4.017248719324949E-31   -7.277030579149294E-32   2.32409563205645E-32     -6.432202031650485E-33   -1.95043696442566E-34    2.5223530304586603E-34
9.7E-5                    1.4857130174633442E-30   -1.0991799661782974E-30  -2.3103491747555302E-30  -3.170514347321593E-30   -1.605214446144817E-30   -4.282564602103908E-31   -8.261417303297258E-32   2.742258065660951E-32    8.72672455791821E-34     1.374013095826428E-34    6.107218182113932E-34