% Model:              analysis.mph
% Version:            COMSOL 6.0.0.405
% Date:               Jul 6 2023, 16:30
% Dimension:          1
% Nodes:              10001
% Expressions:        11
% Description:        Point graph
% Time (s)                Displacement field, Y component Displacement field, Y component Displacement field, Y component Displacement field, Y component Displacement field, Y component Displacement field, Y component Displacement field, Y component Displacement field, Y component Displacement field, Y component Displacement field, Y component Displacement field, Y component
0                         0                        0                        0                        0                        0                        0                        0                        0                        0                        0                        0
1.0E-6                    5.616491868078864E-54    -1.9856856812208837E-52  2.321914618259857E-50    4.180951354197799E-49    2.863870882291403E-48    8.126623124143931E-47    3.641927671590597E-46    1.613161690487232E-46    4.043385815879247E-45    -4.094230544464244E-45   1.1976040863681075E-44
2.0E-6                    -7.219667816221227E-53   -1.4238596312550296E-52  -3.134821786058103E-49   -6.306611154230238E-48   -4.159412946035495E-47   -8.656795265666992E-46   -2.2037864397996303E-45  1.917840297638372E-44    3.425589336593121E-44    5.460948767724247E-43    1.4882886874251993E-43
3.0E-6                    4.293767775337901E-52    1.0867248617194952E-50   1.8227434179311798E-48   3.0965860341327375E-47   1.0523239258078295E-46   1.2376465914494161E-45   -4.217892561943714E-44   -4.335972525528566E-43   -1.1363698073015494E-42  -7.583538519937017E-42   -3.9353811663924915E-42
4.0E-6                    -2.6485759752041585E-51  -6.160782363149778E-50   -6.553796528052088E-48   -3.7303214485996778E-47  6.60747786844418E-46     1.9033116147411383E-44   4.475099311959299E-43    2.6341517518916204E-42   7.2109463366997E-42      3.454017888364752E-41    2.2388967112852835E-41
4.9999999999999996E-6     7.066142716282318E-51    -1.816082888657929E-49   -5.286835274586103E-48   -6.785813450626778E-46   -7.530874743041816E-45   -1.5391177641213766E-43  -1.868650170278223E-42   -6.562450237949044E-42   -1.9644951456908504E-41  -3.8744971926950705E-41  -4.610392812327885E-41
6.0E-6                    1.1171535497789505E-50   2.391440866853587E-48    1.6628862945287904E-46   4.583594889311229E-45    3.18350359011017E-44     5.1928485788686975E-43   2.430763845770224E-42    -5.830944290914724E-43   3.1552991563475793E-42   -2.055065483948667E-40   -4.571890206742627E-41
7.0E-6                    -1.4294171984157598E-49  -7.674229809221047E-48   -6.6773470959581646E-46  -1.1197091471546474E-44  -5.29925945947049E-44    -4.646469941264416E-43   8.91007070338264E-42     4.3396266205175414E-41   1.3757204555363077E-40   6.647412805618746E-40    3.744710958517499E-40
8.0E-6                    5.067783967333667E-49    7.461621155918418E-48    7.730842649384286E-46    -2.052706718678155E-45   -9.061494391687137E-44   -2.6336372556775783E-42  -3.656602571932668E-41   -9.039072516201129E-41   -3.2786714256046256E-40  3.383284952601013E-40    -3.8524197382442065E-40
9.0E-6                    -7.958658438667602E-49   2.0416077673864064E-47   2.539786312128339E-45    7.793685362956843E-44    6.045112571855538E-43    9.311235771496157E-42    1.0983263269541229E-41   -3.0206402505270736E-41  -1.5020789825492435E-40  -3.807282184392347E-39   -9.362478378533607E-40
9.999999999999999E-6      -8.822693461469072E-49   -8.462923156246217E-47   -1.0489376150486343E-44  -1.567691403660705E-43   -7.785595687646272E-43   -4.183082386588687E-42   1.6755134888343441E-40   4.15256576608591E-40     1.7383812091710923E-39   5.518433646543561E-40    1.9391885113994555E-39
1.1E-5                    6.49902122384021E-48     1.2565080599599404E-46   8.431273603455476E-45    -9.828561031982738E-44   -1.775576318188013E-42   -3.852151987212818E-41   -2.256065049581616E-40   -4.147629846529157E-40   -1.382494785190327E-39   1.6885836751078985E-38   1.0978372867986297E-39
1.2E-5                    -9.249278291904572E-48   4.419908245556106E-47    3.558486291780768E-44    8.846529982989939E-43    6.575835563255819E-42    7.823506289035058E-41    -4.614236363672468E-40   -8.251590856172247E-40   -4.926687428520398E-39   -4.3083754276684745E-39  -2.7118009057592806E-39
1.3E-5                    -2.022154266416287E-49   -7.734878156380866E-46   -9.901617877791893E-44   -7.0275904365501185E-43  -1.1211991036605675E-42  5.301301200086909E-41    1.1245560199163814E-39   1.1862869168688187E-39   8.191341812791649E-39    -6.851551509814413E-38   -4.3364266447630963E-39
1.4E-5                    9.837372265316573E-48    1.6110222505637684E-45   -2.516320823592828E-44   -3.062820786601001E-42   -2.643482906922394E-41   -3.813108700750525E-40   7.320581562274859E-40    4.532500058418172E-40    8.788608648898555E-39    1.0430961063035285E-38   -1.1227682047126285E-38
1.4999999999999999E-5     -9.458872172435538E-47   1.8650513467524833E-45   4.797276909741959E-43    4.565213183795582E-42    3.268722492323455E-41    2.3291799611474014E-40   -3.76397639046569E-39    5.007575317040483E-39    -2.692692615119182E-38   2.497939312826855E-37    4.2300833367785976E-38
1.6E-5                    3.7813621537339356E-46   -1.1100490042534187E-44  -2.7054464515852073E-43  1.1635967035748976E-41   7.287556526102195E-41    1.217450773605086E-39    1.0126741517794197E-39   1.3723754354599069E-39   -1.0443872973688104E-38  2.0961305472573495E-39   1.0509102366321277E-37
1.7E-5                    1.6922317668553608E-46   -4.36487645589408E-45    -1.9514954818257666E-42  -1.7175112604982075E-41  -1.8503334921871787E-40  -2.0243225714097035E-39  9.621179637456906E-39    -6.299845821666706E-38   7.234039192749068E-38    -7.832988950162795E-37   -2.385459427946537E-37
1.8E-5                    -3.075614784944196E-45   5.559733109717144E-44    1.6204828156192964E-42   -5.942979961895405E-41   -1.3941695414838214E-40  -2.9307958807274157E-39  -1.636245543499615E-38   -5.250472661816737E-39   2.854198448825822E-38    -1.2968859410376378E-37  -5.6049842651857056E-37
1.8999999999999998E-5     1.7431142461993164E-45   3.0175842944092143E-44   8.066759472040182E-42    5.407770634624791E-41    7.75617853643359E-40     9.78710078790746E-39     -1.9111486488887928E-38  3.6111716912174337E-37   -1.8642066710804635E-37  2.0733857047816895E-36   8.42350645910745E-37
1.9999999999999998E-5     1.4817212611280582E-44   -2.5083942590226666E-43  -6.01347945958072E-42    3.0821530868885558E-40   8.614320739299393E-41    5.3371443094483656E-39   9.68616017200674E-38     4.774457875963458E-38    -2.380373155543736E-37   6.431809706908291E-37    2.3304240651343668E-36
2.1E-5                    -1.5623413878526022E-44  -2.1975894977450998E-43  -3.273564684556654E-41   -1.3910915743152217E-40  -2.886468233182402E-39   -3.9820743806087343E-38  3.1504857979441364E-38   -1.533484700233676E-36   3.991121768672494E-37    -4.5943919554490684E-36  -1.7968987177878643E-36
2.2E-5                    -5.497325979790686E-44   9.955110559920735E-43    1.703648983025109E-41    -1.36588903003243E-39    7.633440543414946E-40    -7.17093621412205E-39    -4.295399733107317E-37   -4.288493265195915E-37   1.3799605816111714E-36   -2.087881135888187E-36   -7.490060245933452E-36
2.3E-5                    7.669530426135305E-44    1.1317109866422417E-42   1.1919798336581765E-40   1.8202608139858693E-40   1.022825210194679E-38    1.494976656026763E-37    -6.900254687986189E-38   5.397066723671477E-36    -2.0538265466865383E-37  8.104538402503679E-36    1.2565477044942137E-36
2.4E-5                    1.6783654345353449E-43   -3.3521219270793295E-42  -3.5413273451746744E-41  5.011253817705573E-39    -4.504050637064908E-39   1.5253379569914982E-38   1.6018559471152724E-36   2.6566726328713266E-36   -5.270956491402959E-36   4.752458837645764E-36    1.79442328099894E-35
2.4999999999999998E-5     -2.8229406341867396E-43  -4.1502440856763875E-42  -3.6967584016349E-40     5.986069037952472E-40    -3.5401548762158946E-38  -5.194175521839858E-37   3.288290979829865E-37    -1.6563523476177832E-35  -3.210023213742601E-36   -8.735322035539999E-36   5.210651956749555E-36
2.6E-5                    -4.024012115729778E-43   9.814133539149843E-42    4.581490203982915E-41    -1.5272675416151674E-38  1.4689721353297304E-38   -1.1063910313630106E-37  -5.313848939179061E-36   -1.297724586192601E-35   1.395531279074661E-35    -2.8078013268744278E-36  -3.158189613911511E-35
2.7E-5                    8.445101305039586E-43    1.02696400460256E-41     9.584627905318475E-40    -4.962362258840514E-39   1.1923715674805076E-37   1.6203529656104896E-36   -1.993672400376823E-36   4.5024758337023743E-35   1.7403992563047127E-35   -4.428535944854983E-36   -1.931697011477387E-35
2.8E-5                    5.3057133533912554E-43   -2.8124817512782734E-41  -3.0442059692554154E-41  3.930991346008721E-38    -2.5718759154172706E-38  6.887559741972809E-37    1.6057014953908362E-35   5.481182816026884E-35    -2.5909166747119E-35     -4.0839746395624077E-35  4.459169060407289E-35
2.9E-5                    -2.1438923502654398E-42  -1.1991518519104764E-41  -2.0948223467664524E-39  1.8582126478190943E-38   -3.828869804480759E-37   -4.4093851862049496E-36  1.1043443168483892E-35   -1.032489631522877E-34   -5.424416271714241E-35   2.643163014868134E-35    3.422974285521211E-35
2.9999999999999997E-5     1.3713758510941866E-42   9.132082072200894E-41    1.0120515417504675E-40   -8.875765606700262E-38   -4.05855612409878E-38    -2.9684816250163582E-36  -4.2828239089221463E-35  -2.0259828987892262E-34  3.374046481461737E-35    2.3912016990775008E-34   -6.772532298416654E-35
3.1E-5                    5.012746751236289E-42    -2.2901723158189598E-41  4.014769234657846E-39    -4.942116879856451E-38   1.1407085791031529E-36   1.0395643420855462E-35   -5.127763101998448E-35   1.6160979907090279E-34   1.3018079436186802E-34   8.76046839151908E-35     -5.851426383001243E-35
3.2E-5                    -1.3725758670349271E-41  -3.1850350666480524E-40  -4.3385427316672055E-40  1.8476910822810477E-37   5.888735580109269E-37    9.549171437654744E-36    9.024502249653537E-35    6.24502973603169E-34     -2.8026975886920314E-35  -7.315419931697274E-34   1.0593613015709482E-34
3.2999999999999996E-5     -1.2637365661687383E-41  1.4302931030139498E-40   -6.598946826675048E-39   1.1589339008897581E-37   -3.0534722141102394E-36  -2.192080161000158E-35   1.9004807450013408E-34   2.2401380105190541E-35   -2.9385926063092475E-34  -8.613930661262705E-34   1.3070768913284621E-34
3.4E-5                    6.303603812859927E-41    9.60897791890378E-40     -9.94713663804749E-40    -3.429226106596584E-37   -3.14814364944898E-36    -2.4896601688571506E-35  -1.0621261091560714E-34  -1.4775019682362116E-33  -4.0211213902150695E-35  1.2572924062841472E-33   -5.31545105613231E-35
3.5E-5                    3.658549187048787E-41    -3.686481229952492E-40   2.5595840027674917E-39   -2.711987597714835E-37   7.008859280366524E-36    4.438047681612841E-35    -5.41330656588786E-34    -1.18965805311914E-33    6.6571505757080915E-34   3.1672812350311965E-33   -1.023155946182529E-34
3.6E-5                    -2.139838949434346E-40   -1.9839274456872542E-39  1.2975474984858235E-38   3.841555597409968E-37    1.2399712378627593E-35   5.858344177108725E-35    -1.444677705243066E-34   2.2826250980879423E-33   4.494471156749871E-34    -3.0623409358460557E-34  -1.3522822836116339E-34
3.7E-5                    -9.93208181175158E-41    1.3286195830538175E-39   6.102175776787191E-38    3.905107828962531E-37    -1.2387248850382373E-35  -9.005339386034138E-35   1.1248418288195383E-33   4.391338758388171E-33    -1.23945390941392E-33    -7.099494679652642E-33   -6.3102687433421225E-34
3.7999999999999995E-5     6.0566388484188395E-40   1.255323244696818E-39    -2.3162984731127628E-38  6.277334168314002E-37    -4.0154593821107607E-35  -1.3702325896647083E-34  1.1837939069274993E-33   -8.166369124306116E-34   -1.8889713518019654E-33  -5.102908721142689E-33   -5.773861749870941E-34
3.9E-5                    1.7810344172156797E-40   -9.431108574550055E-39   -3.914105261954302E-37   1.532552939671807E-36    9.551074829858185E-36    1.7236471109752543E-34   -1.4638729886755946E-33  -9.080768124430329E-33   1.1131671180299372E-33   9.655265862953275E-33    1.8626467836460526E-33
3.9999999999999996E-5     -1.604408878179834E-39   7.218438153855055E-39    -2.236943982594511E-37   -4.0737573762470704E-36  1.0939953750626711E-34   3.1178167810099276E-34   -3.5660484673559734E-33  -6.497289422650506E-33   4.695695870016248E-33    1.7092030851740588E-32   4.4526416650528294E-33
4.1E-5                    1.3738687596178058E-41   5.674166921561529E-38    1.4335357201321115E-36   -1.469047958761276E-35   4.275158770185584E-35    -2.9154154938164353E-34  1.3700244926145622E-34   9.959328175636276E-33    2.0425879704367992E-33   -3.4400776781713145E-33  6.0054110544606805E-34
4.2E-5                    4.5484645134099106E-39   -1.9787963659868853E-38  1.974236513868071E-36    3.79007653236767E-36     -2.4349081141812715E-34  -6.239204332960722E-34   6.981231498659623E-33    1.949594615226213E-32    -6.456402273682596E-33   -3.1607761404133677E-32  -9.782231235001869E-33
4.2999999999999995E-5     -1.1727781671407474E-39  -2.4685510070750955E-37  -3.247749567695823E-36   6.06153495532696E-35     -2.6271883227996395E-34  5.24497872595264E-34     5.086252973880999E-33    1.597970024914296E-33    -9.524105424727E-33      -1.9751909640333248E-32  -1.2752277559858554E-32
4.4E-5                    -1.4208652011050145E-38  -5.624188362162917E-38   -8.74642023920204E-36    4.2709245428308594E-35   3.927445035899657E-34    1.1387430164800187E-33   -8.986251068740508E-33   -2.751040605335822E-32   9.074108915468193E-34    3.339245548677383E-32    4.203972776050596E-33
4.4999999999999996E-5     2.4862332817983874E-39   8.039687727203309E-37    2.4962394070013218E-36   -1.5022292144566478E-34  8.733114600241082E-34    -1.3660035576878514E-33  -1.611226400639562E-32   -2.581647668912923E-32   1.5340083947029936E-32   5.760990946793826E-32    2.7428016445771733E-32
4.6E-5                    4.3574253929026604E-38   6.464082377415049E-37    2.60996317906724E-35     -2.5798877903470765E-34  -2.3329518177644133E-34  -2.7009742231886523E-33  3.613661478159221E-33    1.4911445835495695E-32   1.5184531658408097E-32   6.0378796186206815E-34   2.366254019584488E-32
4.7E-5                    8.070332237587562E-39    -1.9793884904684263E-36  1.437487970122114E-35    1.736211138133009E-34    -2.0312634259772174E-33  3.5556197114913714E-33   3.1573219453259925E-32   4.447141000322533E-32    -4.59882494761184E-33    -8.087834161469237E-32   -1.6478456550556254E-32
4.8E-5                    -1.1582042309908017E-37  -3.008726643272388E-36   -5.372213867895903E-35   8.10340987968919E-34     -1.0683564811416475E-33  8.848738010746803E-33    1.9763440927711431E-32   1.7113955380070706E-32   -2.751660444935146E-32   -7.574126624059693E-32   -5.293489563474631E-32
4.9E-5                    -7.848859027640771E-38   3.401784856605233E-36    -7.766633545157385E-35   3.0525632505858706E-34   3.181669770676783E-33    -4.6518670513450165E-33  -3.824959622736209E-32   -3.682776325499056E-32   -2.918330119548802E-32   3.4484704990317954E-32   -3.4898722945651225E-32
4.9999999999999996E-5     2.4408655177205657E-37   9.826634918564849E-36    6.16285333055466E-35     -1.589678840654953E-33   4.5487317630349376E-33   -2.539882812059384E-32   -6.917722200237916E-32   -4.39562348895048E-32    2.8450389317039946E-33   1.3406835509018923E-31   3.2910475613860674E-32
5.1E-5                    3.2684072017734817E-37   -2.0700141413462066E-36  2.233870122568062E-34    -2.0890564080270552E-33  -2.1558471626329146E-33  -8.377640706019468E-33   -6.7818522636151E-34     7.679808374284277E-33    5.196352568248397E-32    9.889930882049045E-32    8.117660311932527E-32
5.2E-5                    -3.5605620654494396E-37  -2.4778076819563595E-35  4.736292408481047E-35    1.5016346970828897E-33   -9.741422567192653E-33   4.869289406199365E-32    1.1607575829056281E-31   4.666546691562482E-32    6.887543586181548E-32    -6.05121575521759E-32    4.783716606157869E-32
5.3E-5                    -9.407557018163803E-37   -1.1809653577366563E-35  -4.330709045031245E-34   5.5953329290520535E-33   -4.3944555523426874E-33  5.784400696536932E-32    1.223848564934599E-31    2.1092024747502631E-32   8.172291437338712E-33    -1.9535617414760718E-31  -4.6125082058137395E-32
5.4E-5                    1.4359144817278775E-37   4.766592352961977E-35    -4.527327505869081E-34   2.0056367093002267E-33   1.2126972687181949E-32   -4.3735265357336114E-32  -5.659314305474314E-32   -2.646204925242492E-32   -1.037892445724212E-31   -1.5599458510870554E-31  -1.0856133371569392E-31
5.4999999999999995E-5     2.0460395848049023E-36   5.944492241721848E-35    4.981768979701536E-34    -8.922430059878615E-33   1.7076190851233195E-32   -1.4187464285947209E-31  -2.5809905478257864E-31  -2.97454473037296E-32    -1.5400441738225922E-31  5.222394302599021E-32    -7.076210217038047E-32
5.6E-5                    1.1220840291977761E-36   -5.902526358536262E-35   1.3103226478716374E-33   -1.1619745527617724E-32  -3.5914996170488534E-33  -4.951856443424455E-32   -2.0445617079493757E-31  -3.178031388367068E-33   -4.413487834933844E-32   2.4801693500321355E-31   3.90636964356281E-32
5.6999999999999996E-5     -3.298927207754467E-36   -1.6781384075302284E-34  1.4550617525888295E-34   5.9052806729835646E-33   -2.773926448762017E-32   1.8340547409341955E-31   1.5776805492185135E-31   -7.841385727543047E-33   1.7585426954795266E-31   2.4373649492169953E-31   1.2637299614477734E-31
5.8E-5                    -4.640556757615838E-36   -7.138385129380062E-36   -2.3638869255541524E-33  2.579238783658077E-32    -1.946055787763707E-32   2.3520934886096032E-31   4.850852787533331E-31    -3.015734685182861E-32   3.0647372578062214E-31   4.2109507988933796E-32   1.2376670042235295E-31
5.9E-5                    2.9956193473831977E-36   3.2840386667808118E-34   -2.3364926550362942E-33  1.257735461908486E-32    1.9610808878351138E-32   -5.604085612249913E-32   3.371228770313959E-31    2.0025824027889696E-32   1.694730296417657E-31    -1.84202020424344E-31    3.651576569216251E-32
5.9999999999999995E-5     1.1443281861993307E-35   2.7489776022685647E-34   2.2430915677948087E-33   -3.2730829218342587E-32  4.3234755677334427E-32   -3.6744151158599914E-31  -2.7713152590711516E-31  1.5626917554041533E-31   -1.996361746981839E-31   -3.0010995047614656E-31  -9.027926910143865E-32
6.1E-5                    3.336719285278504E-36    -4.000611841484217E-34   6.212416260067774E-33    -5.032947700539699E-32   1.6743155174732749E-32   -2.5098585164657293E-31  -7.639897650924944E-31   2.198271126300122E-31    -5.252027870043799E-31   -2.9643502587483858E-31  -2.0527024496404283E-31
6.2E-5                    -1.9575730459766414E-35  -8.397345409547248E-34   1.7915613106284158E-33   8.418575272486343E-33    -3.562750882139731E-32   2.2771631218891703E-31   -5.324162353055323E-31   1.4413194077713452E-32   -4.858606950140776E-31   -1.6341416231550922E-31  -2.4091808048243997E-31
6.3E-5                    -2.321266404039697E-35   1.7411813075916129E-35   -8.956720798290317E-33   8.937333903910215E-32    -5.653003795910203E-32   4.9808808679009615E-31   2.940301036633774E-31    -4.298244249571604E-31   2.1012544331151107E-34   1.5601244858070988E-31   -1.2487122938571201E-31
6.4E-5                    1.7419768798312154E-35   1.495920273921626E-33    -1.1530175598869256E-32  6.988919457541713E-32    -2.0737236771547813E-32  1.9803380805202746E-31   9.375945663799205E-31    -7.430920492064245E-31   6.439336618491144E-31    5.770295238716797E-31    1.429590690664572E-31
6.5E-5                    6.007192964465203E-35    1.2639284617194682E-33   3.4175449875472896E-33   -7.409295726463258E-32   4.0297224603544533E-32   -3.6127100481085607E-31  7.894466819682069E-31    -4.492263132047186E-31   9.688254272305018E-31    7.749682457375405E-31    4.359840577013679E-31
6.599999999999999E-5      2.2373847927914778E-35   -1.4030839670404681E-33  2.1648525519372768E-32   -1.801379206470025E-31   7.340823285850669E-32    -5.671006603323722E-31   6.296629252026975E-33    5.469863219427348E-31    6.769926485244452E-31    4.5929380216951815E-31   5.662459955903968E-31
6.7E-5                    -9.062912722045782E-35   -3.309423242779171E-33   1.6356589927508577E-32   -6.677727490892765E-32   4.921058646277114E-32    -1.8405673468032383E-31  -7.6343185929580355E-31  1.6325707379435517E-30   -1.4142754364819378E-31  -2.838684766760949E-31   4.084513517070066E-31
6.8E-5                    -1.2713503028425428E-34  -7.234620668430217E-34   -1.589205145989294E-32   2.001481657203298E-31    -2.0564689567560576E-32  4.317457142876291E-31    -1.0237154498391175E-30  1.7738573291678102E-30   -1.107855365925117E-30   -1.041585640830508E-30   -4.941880088795318E-32
6.9E-5                    3.891956065451559E-35    4.484875577210269E-33    -4.021200751423617E-32   3.063342401900806E-31    -9.091149935828888E-32   6.7894145420798345E-31   -6.842458666527018E-31   3.8301030188840356E-31   -1.757515029667165E-30   -1.4239346256614644E-30  -7.2311122769137335E-31
7.0E-5                    2.596099105074025E-34    5.1778730818780066E-33   -1.9469150177538316E-32  4.2037014932495606E-32   -1.078502905599698E-31   2.5484951307120013E-31   6.702275449247834E-32    -1.9559965852720513E-30  -1.6351204744251323E-30  -1.2468144462844106E-30  -1.4023742065901986E-30
7.099999999999999E-5      1.8995111722241713E-34   -1.84235849172922E-33    3.4828691339593E-32      -3.810958117234551E-31   -4.6258478740044905E-32  -4.906322234563289E-31   8.746991420968005E-31    -3.6805616784701076E-30  -4.140366327334543E-31   -4.392669019501568E-31   -1.6914851130925286E-30
7.2E-5                    -2.4064425353194053E-34  -9.115078659725518E-33   6.368828298295163E-32    -4.836082020947992E-31   6.385438293727908E-32    -7.910246487718908E-31   1.308656500479799E-30    -3.320062629196056E-30   1.7621408243039956E-30   9.723356479771337E-31    -1.1190296815097466E-30
7.3E-5                    -5.461644835734735E-34   -5.950804512594533E-33   2.4117781585474524E-32   -4.520584780078293E-32   1.5632116410471475E-31   -3.0232094960731532E-31  1.0814096006620992E-30   -5.6444997390081685E-31  3.939404180248038E-30    2.6052001189039227E-30   4.822062618785063E-31
7.4E-5                    -1.7278433629035902E-34  6.707385412340685E-33    -5.469145095406093E-32   5.771374096324046E-31    1.7762876007239744E-31   3.782043759056439E-31    2.050831513063716E-31    3.455481804987992E-30    4.546194328333444E-30    3.517121012528892E-30    2.5755956941595876E-30
7.5E-5                    6.530002528151535E-34    1.4185325965470044E-32   -9.225497373159737E-32   7.443416196684972E-31    1.0720210959601727E-31   4.469104047195898E-31    -1.0325717622441508E-30  6.680543830730703E-30    2.3007502447848986E-30   2.558639641958482E-30    3.9459347444329946E-30
7.599999999999999E-5      9.111918147415653E-34    5.1139935168340476E-33   -3.9094262150842596E-32  1.8207497102953813E-31   -5.974761169294171E-32   9.301041954367729E-32    -2.0658426589535417E-30  6.989028665013485E-30    -2.670779354803157E-30   -7.039138181618687E-31   3.320148740842156E-30
7.7E-5                    -8.354143318604861E-36   -1.2497156682298815E-32  6.591672460136374E-32    -6.849296476233121E-31   -2.972018588800481E-31   2.7283735259010207E-31   -2.1134317550274546E-30  3.1810693175279184E-30   -8.322111744166522E-30   -5.1884562578082635E-30  2.12086733781302E-31
7.8E-5                    -1.2517706005193812E-33  -1.845684764812823E-32   1.2544488099637073E-31   -1.076250115813366E-30   -4.79172434464322E-31    1.041998423962023E-30    -7.349746164761973E-31   -4.025572359917023E-30   -1.1313135100903611E-29  -8.49703369152467E-30    -4.6301828521492026E-30
7.9E-5                    -1.2319496834916188E-33  -4.166115957793104E-33   7.439823637182529E-32    -5.682446946304483E-31   -3.8316435588707447E-31  9.49766595897648E-31     1.459706772203429E-30    -1.1523170939239107E-29  -8.699375840882919E-30   -8.300497021443653E-30   -9.473968510035396E-30
7.999999999999999E-5      3.5839341848848482E-34   1.6335753404470112E-32   -5.475504453764183E-32   4.969374917275656E-31    1.12961778661818E-31     -1.0753137650149412E-30  3.060727411694362E-30    -1.4753214453465148E-29  3.4195540415965246E-32   -4.065450563208175E-30   -1.2332908767665091E-29
8.099999999999999E-5      1.8031248583863247E-33   2.190171322066422E-32    -1.5434241224906405E-31  1.2890913015883404E-30   7.878459280565121E-31    -3.651269725960701E-30   3.1093575998141854E-30   -1.0291455287216471E-29  1.1770180702149787E-29   2.1459543117616475E-30   -1.1808068628218024E-29
8.2E-5                    1.2801358954178431E-33   6.910770551031916E-33    -1.3325548039091516E-31  1.1871120530271753E-30   1.12803280335402E-30     -3.8099932879286846E-30  1.8000079799668768E-30   1.2526944678308791E-30   2.04850767928814E-29     6.520340814498648E-30    -7.823126466316342E-30
8.3E-5                    -6.964581225799078E-34   -1.4997676104363855E-32  2.9534648519901058E-33   2.503173087371772E-31    7.480343090614095E-31    -2.089082933177613E-31   -2.171532199148811E-31   1.4451957674487633E-29   2.0088074466378074E-29   5.578974963839134E-30    -2.011014855353107E-30
8.4E-5                    -1.7078909438391887E-33  -2.5962337542880403E-32  1.5352386144051854E-31   -9.14603458078498E-31    -2.3632499318306007E-31  5.0400098118931555E-30   -2.6523374582658622E-30  2.1877029280714868E-29   8.053563071009062E-30    -1.7896709229741064E-30  2.700001949889769E-30
8.499999999999999E-5      -6.521260996978332E-34   -1.7652378498240842E-32  2.0176022852351094E-31   -1.6487008807314174E-30  -1.3070512155817566E-30  7.955285651456172E-30    -5.17915483708361E-30    1.901991122463064E-29    -1.2498420679662737E-29  -1.3581703038938544E-29  3.5158537156431424E-30
8.599999999999999E-5      5.552754510278196E-34    6.100593476166648E-33    1.0335670004479869E-31   -1.573702972314226E-30   -1.9483386845299264E-30  5.882339660898573E-30    -6.622933501020967E-30   7.359226915839259E-30    -3.3972804837399777E-29  -2.544878243916228E-29   -4.272522073606444E-31
8.7E-5                    -1.9284571491718677E-34  3.1117810737250956E-32   -8.305488946274594E-32   -6.011768694689989E-31   -1.8252933255845988E-30  -5.958860500409352E-31   -5.3188163566173306E-30  -7.255103264716779E-30   -4.817687145170712E-29   -3.2378368069793214E-29  -7.181928292709556E-30
8.8E-5                    -1.3168506091931095E-33  3.708940794944346E-32    -2.356961385669784E-31   1.0601902433024927E-30   -6.836679928877297E-31   -8.061398185831136E-30   -5.470722008580207E-31   -1.932696830158746E-29   -5.03790523018026E-29    -3.0752319856329465E-29  -1.2832723621415658E-29
8.9E-5                    8.992337736125989E-34    1.1682067188474528E-32   -2.4583950973279007E-31  2.7042741054522097E-30   1.4903666314888167E-30   -1.2242068639622051E-29  6.417707393841618E-30    -2.700526344329365E-29   -4.1171846973783934E-29  -2.0363627700241875E-29  -1.3618911677133787E-29
8.999999999999999E-5      5.633372960029544E-33    -3.1689755715043403E-32  -8.699698652114975E-32   3.1458750063278585E-30   3.912171674681556E-30    -1.0386681945370483E-29  1.2521342991080053E-29   -3.14531585416771E-29    -2.5633121187065683E-29  -5.2156447014363685E-30  -8.015375002687977E-30
9.099999999999999E-5      5.406044815176915E-33    -5.730443664251748E-32   1.5793348471770529E-31   1.4636751547996433E-30   4.886851319876673E-30    -2.8440466371025767E-30  1.422324466190962E-29    -3.4259827530937664E-29  -1.0754162835117925E-29  8.302894691570965E-30    2.41637016217774E-30
9.2E-5                    -4.708981063691181E-33   -3.897991574460551E-32   3.3497921963895435E-31   -1.9064763181900617E-30  2.908978981690472E-30    7.045779058574402E-30    9.269450594551263E-30    -3.607628295704472E-29   -2.249902912001175E-30   1.5312166795396056E-29   1.380592677344767E-29
9.3E-5                    -1.610524781357554E-32   1.2555804561420473E-32   3.1536591891304745E-31   -4.936618895651857E-30   -1.7425614591343263E-30  1.466605716173316E-29    -1.991485175531372E-30   -3.687271411262769E-29   -1.794602628691603E-30   1.5436700829136865E-29   2.195318269889246E-29
9.4E-5                    -1.1944370373733253E-32  5.996542475158853E-32    9.106095795016405E-32    -5.290621876962016E-30   -6.627170668318981E-30   1.6400208132297053E-29   -1.6766151078094844E-29  -3.6170088530207776E-29  -6.093376959317578E-30   1.246139048522766E-29    2.4495022817601317E-29
9.499999999999999E-5      1.1020237849958721E-32   7.240302092972822E-32    -2.1026835001741694E-31  -2.1931642783089223E-30  -8.654120406599483E-30   1.1288935215916531E-29   -3.1364804384693324E-29  -3.29026513712505E-29    -8.786754232418893E-30   1.140104340435101E-29    2.2050239806770773E-29
9.6E-5                    3.070077421390317E-32    4.166805993034989E-32    -4.134621397134488E-31   2.8124805356840935E-30   -6.235007264910994E-30   1.3126232435127437E-30   -4.2748360793333145E-29  -2.606698011107807E-29   -4.232335881731662E-30   1.5693146713161575E-29   1.7603043589850072E-29
9.7E-5                    2.0380267868989135E-32   -2.2688936451906483E-32  -4.129985873709831E-31   6.85957537876052E-30     -3.245210273115438E-31   -9.793742276245059E-30   -4.9047674814592934E-29  -1.6041496931464324E-29  9.462632874440525E-30    2.6034343863911637E-29   1.4495552092671837E-29