% Model:              Untitled.mph
% Version:            COMSOL 6.0.0.405
% Date:               Jul 15 2025, 17:21
% Dimension:          1
% Nodes:              401
% Expressions:        11
% Description:        Point graph
% Time (s)                Displacement field, Y component Displacement field, Y component Displacement field, Y component Displacement field, Y component Displacement field, Y component Displacement field, Y component Displacement field, Y component Displacement field, Y component Displacement field, Y component Displacement field, Y component Displacement field, Y component
0                         3.86924403076835E-32     1.4689364102607493E-31   1.0013500660169697E-31   -4.602366408007344E-32   4.3935035871451144E-32   -3.0399588128898485E-33  -1.3921936653156125E-32  -1.7945826683403853E-31  -4.774275945364959E-32   -2.037932114587569E-31   -6.147711958021197E-32
5.0E-7                    3.9402511751025657E-23   1.009168449012552E-21    -2.696176904265353E-23   7.507866057872544E-24    -6.97207250228637E-24    -1.3070246511438145E-24  -2.6306669219595044E-24  2.6279821644054765E-23   5.848163725154428E-24    2.4181529081954993E-23   -5.849106824201376E-24
1.0E-6                    -1.7177094991599271E-22  -4.442440640761257E-21   -2.764467278256369E-23   6.704466865978484E-24    2.3899830808257274E-23   1.3426139912629708E-23   5.21397428101694E-23     -1.9242988874380365E-23  -3.48547429023636E-24    4.78055477429035E-23     1.2703345257472907E-22
1.5E-6                    -4.0719547984479996E-22  -8.499338084053223E-21   4.194824559037596E-21    3.9782589239202396E-23   -5.2451248633305164E-23  -4.764867956226647E-23   -1.9606306333388663E-22  -1.0288281796546795E-22  -4.0273818453992446E-23  -5.768563087981122E-22   -6.009909770428975E-22
2.0E-6                    1.3129048104567401E-21   2.3096302225088982E-20   -1.0051841264496996E-20  -1.2372857486809266E-22  -3.51789697109678E-22    4.076169923882527E-23    3.4287146701458665E-24   4.98501569180611E-22     3.7511863325818354E-22   2.3192705484406433E-21   1.2898737762654727E-21
2.4999999999999998E-6     8.366490063678944E-21    1.187886600645282E-19    -3.688703885608264E-20   -8.946734228192675E-22   1.755820832667051E-21    2.450768048355779E-22    1.1111533118588267E-21   -1.1200981150911388E-21  -1.1360996574367047E-21  -5.428318466541989E-21   -2.974625306786535E-22
3.0E-6                    -6.30414711575465E-21    -4.980674784943419E-21   7.296048384303565E-20    -1.3362034317431655E-21  -5.550494756076476E-22   -2.756037692766036E-22   1.3214411610168674E-21   1.0680868952575313E-21   5.551441863090665E-22    6.33287144167851E-21     -3.0942942390412334E-21
3.5E-6                    -6.746419443701276E-20   -8.707057664192257E-19   2.90848143527184E-19     9.26839276209432E-21     -1.3140584205461655E-21  -2.261156401913091E-21   -1.0037602358453918E-20  -2.4865077642274594E-21  7.510370261251616E-22    6.2727908420877134E-21   3.397478317292743E-22
4.0E-6                    -4.509346229332604E-20   -8.66056629704742E-19    -2.721427347092825E-19   3.122945203703637E-20    -2.6518389468942125E-21  1.1613905261310876E-21   -1.498006013544173E-20   1.0506728291774986E-20   2.7109702513430997E-21   -4.5425997005592984E-20  8.7237204382697E-22
4.5E-6                    2.840467370970211E-19    3.793910375034359E-18    -1.8543349909820623E-18  -5.639975399537732E-20   -2.914052298978747E-20   1.8493478778795464E-20   6.74901124850749E-20     1.047503802592775E-20    1.262503506042253E-20    5.807125456095802E-20    4.252929965210649E-20
4.9999999999999996E-6     6.014552048014119E-19    7.221754871112904E-18    2.802041936554697E-20    -1.459942097740248E-19   3.509848538240858E-20    6.207928653917802E-22    1.082489056108478E-19    -7.494612928326946E-20   -5.933056565415049E-20   7.610785160445194E-20    -1.6530321384988056E-20
5.5E-6                    -3.5785412848234856E-19  -9.818868198603894E-18   8.879749016535678E-18    2.9354820602339703E-19   2.411659814029534E-19    -1.0782537065718726E-19  -3.0876875164141952E-19  -1.2946637057816664E-19  -9.945223477393607E-20   -2.538363906003532E-19   -3.243995845812332E-19
6.0E-6                    -2.6687028925628755E-18  -3.419155455550494E-17   7.555415858730676E-18    5.900694706386402E-19    2.2353501291905637E-19   -7.460657448805969E-20   -6.329020091944716E-19   -1.5192807197485213E-19  2.216762462114259E-19    -2.9635614779144014E-19  1.2289458244450699E-19
6.5E-6                    -2.111404686579462E-18   8.116952547337539E-18    -2.8641823177544435E-17  -5.558558810826897E-19   -3.6368971240687356E-19  4.354481420234069E-19    9.83229298839468E-19     3.822490568382393E-19    3.282840069465634E-19    1.10970917603775E-19     1.5130522234009631E-18
7.0E-6                    5.165741816681109E-18    1.122258995007599E-16    -5.3697725255426634E-17  3.3018926842841723E-20   -1.1826541519997491E-18  6.850481952052601E-19    2.9457947031203318E-18   6.189800895786256E-19    -1.2067470691747233E-18  1.2849446528922467E-18   -6.610427051327358E-19
7.499999999999999E-6      1.1372835719052716E-17   6.032644551540176E-17    5.0746800254368835E-17   8.524196826749043E-18    -3.1966465651593206E-20  -1.0022286842629138E-18  -1.8674681517097547E-18  -7.020745932788052E-18   -4.061940453210852E-18   -8.195740747474995E-19   -6.865934218620491E-18
8.0E-6                    2.6267941850345325E-18   -2.404530681468548E-16   2.282275963465249E-16    2.0271501497093368E-17   8.135510288994906E-18    -3.459061957413519E-18   -1.0766439320116062E-17  -2.2626918250283062E-17  -4.870902922482916E-18   -1.5782730558895255E-17  -5.052140335104361E-19
8.5E-6                    -1.5190749800293715E-17  -2.996519925939901E-16   8.34967578280527E-17     1.177423317760014E-17    2.687872502869596E-17    -5.477421132048426E-19   -6.623515752969741E-19   -1.6717978782562238E-17  -6.278318593206547E-18   -2.3177768118377817E-17  2.16577486276684E-17
9.0E-6                    -2.1349533404340616E-17  3.3252860703574033E-16   -5.297713964338971E-16   -1.584499253579722E-17   4.933609248750626E-17    1.0152347911799E-17      2.979960413827713E-17    4.256151980150138E-18    -3.777028284516551E-17   6.334384705200177E-18    -9.624194342202448E-19
9.499999999999999E-6      -2.3690301328940717E-17  8.993637241900824E-16    -6.685396933044898E-16   8.39320791058985E-17     5.566849927789973E-17    1.4329227225769045E-17   1.821711660863083E-17    -1.2621041806089544E-16  -1.5035368859293619E-16  -3.5314640978491854E-17  -1.092461628112207E-16
9.999999999999999E-6      -2.2595289316639316E-17  3.339136166770669E-16    8.530994396480259E-16    6.118632674924669E-16    5.2265713768032385E-17   -1.037984718702193E-17   -6.543862539978606E-17   -5.940292034787434E-16   -3.755497823360509E-16   -3.294373693108415E-16   -1.376639699829252E-16
1.05E-5                   1.0056128886039369E-16   -4.394940832131341E-16   2.9585941969923797E-15   1.6370097834528379E-15   2.423485945714277E-16    -5.4925581899261004E-17  -8.460366240257297E-17   -1.2583531155795385E-15  -8.165737903696637E-16   -7.826618564299727E-16   8.794762386896163E-17
1.1E-5                    4.2059005173110057E-16   4.060204112320743E-16    2.392172475272664E-15    2.808250472533609E-15    1.2650661359525866E-15   -5.298481404530739E-17   8.47086790097421E-17     -2.2921627487320158E-15  -1.98258381032563E-15    -1.229553827863688E-15   4.5047580745291296E-17
1.15E-5                   4.947097878317237E-16    2.1874820205619212E-15   -9.386976665642907E-16   4.932493702848866E-15    3.865768407079852E-15    6.506203192901313E-17    1.9289946379026584E-16   -6.196210236490593E-15   -5.0075319200023555E-15  -2.358552771710151E-15   -1.3392135721037673E-15
1.2E-5                    -3.4931453585331496E-16  4.375706382129853E-15    4.822008789351099E-16    1.291863651941686E-14    7.584599052044112E-15    2.387502893153859E-16    -1.422657248938006E-16   -1.787418065452716E-14   -1.1618083544777348E-14  -6.20128846241209E-15    -3.718623545945257E-15
1.2499999999999999E-5     -1.3001189535628237E-15  1.2914915747249779E-14   1.6582152726293723E-14   3.5899704820777334E-14   1.1078724663411327E-14   1.938847662138291E-16    -6.441066377803644E-16   -4.0726511004609116E-14  -2.4932337107307168E-14  -1.5722921948451508E-14  -4.8798612506748486E-15
1.3E-5                    5.782091515935656E-16    3.494318336970501E-14    4.8957938994407966E-14   8.343669766352228E-14    1.8985313465205347E-14   -3.640092181437228E-16   -5.672676866030032E-16   -7.917623465113754E-14   -5.1921236458673416E-14  -3.353898176065435E-14   -6.212152475838243E-15
1.35E-5                   6.782573721083795E-15    6.654778971956048E-14    9.169423597569444E-14    1.6871164692068861E-13   5.130376365034007E-14    -1.201347012762683E-15   -2.066600563157123E-16   -1.6245886980715654E-13  -1.063020888849368E-13   -6.178139814084103E-14   -1.810545528611236E-14
1.4E-5                    1.356706749776221E-14    1.0278561728057125E-13   1.532984417547807E-13    3.3137855285545233E-13   1.3549585888008552E-13   -1.2108008754426653E-15  -1.2010952305257661E-15  -3.722936925004226E-13   -2.1090214528240663E-13  -1.1148861141302521E-13  -5.189270898911212E-14
1.45E-5                   1.7046564339543812E-14   1.689231445985441E-13    2.8788249523932845E-13   6.678887691163541E-13    2.762296275640859E-13    6.242732889265035E-16    -4.623979288874791E-15   -8.228645462394936E-13   -4.009026837184982E-13   -2.1839556333758317E-13  -1.0513175273401408E-13
1.4999999999999999E-5     2.4772441790392274E-14   3.288357395659312E-13    6.104867540630285E-13    1.3355234768730886E-12   4.572620232265144E-13    2.931223545391821E-15    -1.0643592293702116E-14  -1.6042646053156816E-12  -7.290311589776039E-13   -4.3156490337796443E-13  -1.7254288324133944E-13
1.55E-5                   5.709472369326508E-14    6.604554980369298E-13    1.273286512569651E-12    2.530671217959617E-12    7.395284951000969E-13    9.245994407620242E-16    -2.1430148979135337E-14  -2.8347233279767106E-12  -1.2722421349626221E-12  -7.732244850690865E-13   -2.86501886278311E-13
1.6E-5                    1.3728605218029318E-13   1.2332607898619124E-12   2.4118324231537806E-12   4.509440449838205E-12    1.3721285101683405E-12   -1.017122602551808E-14   -4.2134865426760416E-14  -4.9102264890315945E-12  -2.1365360669267914E-12  -1.2587577180667584E-12  -5.293011995201727E-13
1.6499999999999998E-5     2.966020078620993E-13    2.067353559173645E-12    4.1550534468792835E-12   7.699238922151113E-12    2.685689868453019E-12    -2.8472344855868926E-14  -8.059701622770846E-14   -8.679185493884296E-12   -3.4546516686685615E-12  -1.99801508719359E-12    -9.791583461648699E-13
1.7E-5                    5.969311494084146E-13    3.048955708212457E-12    6.818404797426752E-12    1.2782986065552278E-11   4.7568276555507905E-12   -4.322601974475471E-14   -1.5812618229365828E-13  -1.5093239279847333E-11  -5.40773507600646E-12    -3.1886445417069023E-12  -1.6594274879400077E-12
1.75E-5                   1.1268498262861896E-12   3.983505937940221E-12    1.115090187574416E-11    2.0492305035163546E-11   7.342691625673068E-12    -4.692348765245012E-14   -3.263906771328876E-13   -2.4420266981274005E-11  -8.355639524230108E-12   -4.963025182507613E-12   -2.583635438490665E-12
1.8E-5                    1.9791316219144758E-12   4.998253729269574E-12    1.8155947915418287E-11   3.100554426325832E-11    1.0555211239220651E-11   -6.264423418407214E-14   -6.55979907365708E-13    -3.5803399093850684E-11  -1.3012310648052096E-11  -7.522175197972397E-12   -3.876848593818189E-12
1.85E-5                   3.3269471579521348E-12   6.931684037503204E-12    2.8244821570445466E-11   4.3300409868650995E-11   1.567742860036515E-11    -1.631025234608183E-13   -1.2018803257037141E-12  -4.766733362157647E-11   -2.0203715532761695E-11  -1.165101162198129E-11   -5.903541113965411E-12
1.8999999999999998E-5     5.61275523914123E-12     1.0876831588495324E-11   4.0397179418592866E-11   5.5065180798207894E-11   2.4598692807677712E-11   -4.3958373609786284E-13  -2.039730572277671E-12   -5.841913386457472E-11   -2.9809648001187265E-11  -1.8510656706358628E-11  -9.357929650545732E-12
1.95E-5                   9.541878732890736E-12    1.689179712009155E-11    5.231933751525301E-11    6.33840135408692E-11     3.7418051731833026E-11   -9.225469670218925E-13   -3.416340803418555E-12   -6.664001701500687E-11   -3.966723572467917E-11   -2.7939263854180134E-11  -1.5106742358587962E-11
1.9999999999999998E-5     1.5572538078974903E-11   2.339451093016974E-11    6.147714800833393E-11    6.573257758551111E-11    5.03859379067645E-11     -1.5616360628147181E-12  -5.825475029341304E-12   -7.088926466957877E-11   -4.618389661096346E-11   -3.7167535332562205E-11  -2.3460403248368587E-11
2.05E-5                   2.322169148037291E-11    2.8464528847400023E-11   6.585246608217208E-11    6.067323007007601E-11    5.721338908950055E-11    -2.3881802245358456E-12  -9.752130952780318E-12   -6.976438577505403E-11   -4.686045746697771E-11   -4.263978493782898E-11   -3.324753335514849E-11
2.1E-5                    3.100124722892178E-11    3.176167719094958E-11    6.400499407587079E-11    4.8083809647550496E-11   5.374412462791828E-11    -3.7615098447144905E-12  -1.5196255911173427E-11  -6.219769470103936E-11   -4.197349524135243E-11   -4.34688947521424E-11    -4.2053388048601886E-11
2.1499999999999997E-5     3.721599900701944E-11    3.440664369489633E-11    5.514811377303448E-11    2.8986667093715592E-11   4.179133676536771E-11    -6.342142413763842E-12   -2.146622718245155E-11   -4.74568242234896E-11    -3.305895562614802E-11   -4.161199874215984E-11   -4.813151316318721E-11
2.2E-5                    4.074643438285325E-11    3.655893006262294E-11    3.936454156716362E-11    4.866803152119298E-12    2.767994945428554E-11    -1.0594676837391878E-11  -2.748016110161414E-11   -2.4866919628368863E-11  -2.0362221332388148E-11  -3.80831379015538E-11    -5.1810150703144915E-11
2.2499999999999998E-5     4.092040243796772E-11    3.5762364161669273E-11   1.719496829206074E-11    -2.342611606897053E-11   1.5933861670370426E-11   -1.620941960954794E-11   -3.21854924049974E-11    6.217667008720031E-12    -3.319333093781379E-12   -3.104899591916519E-11   -5.3834937547748445E-11
2.3E-5                    3.6860062004701474E-11   2.854712299535467E-11    -1.1096465114895622E-11  -5.640747594038159E-11   3.949011835268545E-12    -2.2108319201035486E-11  -3.4643455506717634E-11  4.611159535620963E-11    1.6760320580861945E-11   -1.9063293234494932E-11  -5.2311422253401545E-11
2.35E-5                   2.747223923762239E-11    1.3665872632946696E-11   -4.525402934866381E-11   -9.553827360202972E-11   -1.6493448175328446E-11  -2.711117729435104E-11   -3.39153671191948E-11    9.464814553371624E-11    3.6988593792394936E-11   -3.835366127498978E-12   -4.312916606356765E-11
2.4E-5                    1.2338904018934832E-11   -6.78718929065589E-12    -8.425825773135993E-11   -1.4203094134704292E-10  -5.135270098453803E-11   -3.051639339796395E-11   -2.914719426591447E-11   1.5146966162555118E-10   5.698151451839688E-11    1.3061047710538774E-11   -2.4486905371475056E-11
2.45E-5                   -7.559200762761927E-12   -2.9524006744761006E-11  -1.2725822664357185E-10  -1.961959150171295E-10   -9.748724942792921E-11   -3.19506868755539E-11    -1.9817064378478128E-11  2.1652194120427424E-10   8.06598179822408E-11     3.4760405348502895E-11   7.189618522648561E-13
2.4999999999999998E-5     -3.026982745734639E-11   -5.302751296166232E-11   -1.7585888206099784E-10  -2.579926307015245E-10   -1.4414403388327765E-10  -3.0833874149177214E-11  -5.858998257680879E-12   2.9022059703795664E-10   1.122916863407252E-10    6.67168263897561E-11     2.9001495857736093E-11
2.55E-5                   -5.420937068379691E-11   -7.868563227943964E-11   -2.3408117513063094E-10  -3.277076925836202E-10   -1.8199430302973747E-10  -2.6323444314091442E-11  1.2293731884404617E-11   3.727611141695955E-10    1.5215741120218538E-10   1.0975208867831094E-10   6.164102771617549E-11
2.6E-5                    -7.941570345896024E-11   -1.0980767200124742E-10  -3.045328406510008E-10   -4.0493674025078674E-10  -2.111775581497062E-10   -1.785892654120577E-11   3.363081651800715E-11    4.626246369624375E-10    1.9774095672379484E-10   1.5878115710914698E-10   1.0334426838028527E-10
2.65E-5                   -1.0789076672827033E-10  -1.4962375927150454E-10  -3.846426603665482E-10   -4.859272122788292E-10   -2.409328212253717E-10   -5.443141781265219E-12   5.6811044738448706E-11   5.554469070435008E-10    2.473684448515494E-10    2.0913599746055154E-10   1.5582456856318136E-10
2.7E-5                    -1.426295284370329E-10   -1.9913518062677805E-10  -4.671615247657319E-10   -5.623311135216713E-10   -2.8164676124865415E-10  1.0944726590013865E-11   8.101500902795928E-11    6.446575855910331E-10    2.9971079556501825E-10   2.6101057065796874E-10   2.154476599128461E-10
2.7499999999999998E-5     -1.854531612865543E-10   -2.5567594580200994E-10  -5.441167999790859E-10   -6.241072203212366E-10   -3.3634237479363936E-10  3.210499866392807E-11    1.0671872392789637E-10   7.235979671218009E-10    3.502920886779666E-10    3.1598735028721556E-10   2.776654897247082E-10
2.8E-5                    -2.347512114462604E-10   -3.133751220372709E-10   -6.102553616988924E-10   -6.644994567022684E-10   -3.978743044678428E-10   5.925562544309721E-11    1.3535213488034877E-10   7.869851022896516E-10    3.918638516371424E-10    3.715581900211195E-10    3.4077870379352467E-10
2.8499999999999998E-5     -2.849966502184432E-10   -3.656983815161954E-10   -6.635942238779775E-10   -6.817233763641819E-10   -4.5318517916223437E-10  9.242612115205022E-11    1.679539576147121E-10    8.303282152446976E-10    4.196571922939215E-10    4.2140639397543136E-10   4.036291353813149E-10
2.9E-5                    -3.290379988153288E-10   -4.08181059480102E-10    -7.03206921984743E-10    -6.756112229994672E-10   -4.910777760442233E-10   1.291730063121655E-10    2.0405473910354224E-10   8.484073450063901E-10    4.3476795578227714E-10   4.6009600158993617E-10   4.620732536412355E-10
2.95E-5                   -3.6187493130054734E-10  -4.389784091621319E-10   -7.256881362563125E-10   -6.433756944563019E-10   -5.074797134823732E-10   1.652817325293867E-10    2.4157019028358124E-10   8.34641658279519E-10     4.412757929903518E-10    4.857987610573108E-10    5.10711907276357E-10
2.9999999999999997E-5     -3.8306704996698706E-10  -4.569752688355269E-10   -7.229612341887365E-10   -5.786855947918572E-10   -5.042042463015816E-10   1.9724037404207395E-10   2.773633032386528E-10    7.814538772767349E-10    4.407211838712095E-10    4.991720032497832E-10    5.473711930629214E-10
3.05E-5                   -3.957965669133363E-10   -4.5956781107394747E-10  -6.840053466991291E-10   -4.735426184752056E-10   -4.83172157431374E-10    2.2437491897148685E-10   3.079433697186921E-10    6.807301254206382E-10    4.295700939508601E-10    5.01011534536818E-10     5.732486499411293E-10
3.1E-5                    -4.031162742084105E-10   -4.4228424476404155E-10  -5.996176050761361E-10   -3.203245647052236E-10   -4.422147750263867E-10   2.486664906980658E-10    3.3020717407536373E-10   5.244564724949504E-10    4.0051167075087634E-10   4.901418583811656E-10    5.882992127446369E-10
3.15E-5                   -4.038644989399707E-10   -4.004246790334719E-10   -4.656583792985502E-10   -1.1301967257680437E-10  -3.7598196350459486E-10  2.722770692619098E-10    3.420114153521069E-10    3.0601628111746193E-10   3.450723519095924E-10    4.6155981284834457E-10   5.880252305553614E-10
3.2E-5                    -3.9084449605697747E-10  -3.3103867501301555E-10  -2.8165153880470937E-10  1.5198635525165404E-10   -2.7938956488938355E-10  2.947557765135636E-10    3.419931493695773E-10    2.137103984221477E-11    2.5615002033150894E-10   4.065530156599688E-10    5.646743406167071E-10
3.25E-5                   -3.524867831343447E-10   -2.333416677019694E-10   -4.687845315390107E-11   4.75085261780211E-10     -1.491008099197589E-10   3.121502208654571E-10    3.28513184239771E-10     -3.3095744152533313E-10  1.3033120047206644E-10   3.1636391938918964E-10   5.09706024253677E-10
3.2999999999999996E-5     -2.7726057561339977E-10  -1.0713309539478011E-10  2.414929585502931E-10    8.52199417076818E-10     1.7559887951327683E-11   3.186948724808989E-10    2.985846878749949E-10    -7.504921267300084E-10   -3.109447279779438E-11   1.865950882836181E-10    4.1502591593733746E-10
3.35E-5                   -1.583924185242602E-10   4.920631573803447E-11    5.866467240941974E-10    1.274038131882945E-9     2.2315673693108653E-10   3.0960990868331106E-10   2.478282025620381E-10    -1.234526612408545E-9    -2.2365265724717671E-10  1.7622405392146407E-11   2.7439787581591353E-10
3.4E-5                    4.007204663388841E-12    2.3883840044386494E-10   9.88917158067788E-10     1.727834268466889E-9     4.684911631774347E-10    2.825877387485759E-10    1.7158148211537027E-10   -1.7768621385022677E-9   -4.42530274035625E-10    -1.887701067378453E-10   8.538647468170301E-11
3.45E-5                   2.0466983023026314E-10   4.6407379404309935E-10   1.4437839329846026E-9    2.200641216874836E-9     7.508216843543585E-10    2.367961432748753E-10    6.635852655917838E-11    -2.366516301734039E-9    -6.838439385708405E-10   -4.3134113649346206E-10  -1.509587415547579E-10
3.5E-5                    4.3706440389583157E-10   7.234093741912345E-10    1.9417646992645926E-9    2.679639310243037E-9     1.0640978058937617E-9    1.7067683667285886E-10   -6.924342940671092E-11   -2.986800375234711E-9    -9.434604826910647E-10   -7.074937285466208E-10   -4.32881405115647E-10
3.5499999999999996E-5     6.961025733715208E-10    1.0105408050888904E-9    2.4693018588786787E-9    3.1479469334673602E-9    1.3999567744413024E-9    8.099141127281621E-11    -2.345173081175488E-10   -3.6148489820562285E-9   -1.2156285904606722E-9   -1.0112700833553009E-9   -7.585356926089436E-10
3.6E-5                    9.77652592592324E-10     1.3158216401009714E-9    3.0092595397575964E-9    3.5811421949890335E-9    1.7473958672452114E-9    -3.582316924992498E-11   -4.271986152736913E-10   -4.222186981245031E-9    -1.4934301636743588E-9   -1.3348192123635554E-9   -1.1224739509022063E-9
3.65E-5                   1.2759507049581048E-9    1.6285008086293814E-9    3.5402653161056912E-9    3.949233042918388E-9     2.0922951195032008E-9    -1.813435324646476E-10   -6.440152244835997E-10   -4.776404624411741E-9    -1.7699746410443317E-9   -1.6709066925788194E-9   -1.513458520350208E-9
3.7E-5                    1.581800764591983E-9     1.9380593821801325E-9    4.035781682587647E-9     4.221507402291583E-9     2.4191763507909567E-9    -3.540712863717969E-10   -8.807945893476989E-10   -5.242790275028095E-9    -2.037905221453199E-9    -2.0118990870085496E-9   -1.918430471615622E-9
3.75E-5                   1.883430551833805E-9     2.2341081952020812E-9    4.464766860583094E-9     4.369134661424953E-9     2.7136952034802673E-9    -5.502748066628834E-10   -1.1320576447708985E-9   -5.585189276442534E-9    -2.2869582539499723E-9   -2.3457559959107267E-9   -2.3278809516138305E-9
3.7999999999999995E-5     2.169112223197044E-9     2.504869735745749E-9     4.794182929753062E-9     4.365196845983611E-9     2.96185637266279E-9      -7.65484478461179E-10    -1.3903631914961932E-9   -5.766804135808417E-9    -2.501997165757749E-9    -2.6541022104309812E-9   -2.7340342957837136E-9
3.85E-5                   2.428566048205354E-9     2.734730598229334E-9     4.991231966774496E-9     4.1846259236964355E-9    3.1460546417393357E-9    -9.949221958223866E-10   -1.6458462543053881E-9   -5.751414839810057E-9    -2.6638441545892847E-9   -2.9149595167130473E-9   -3.12244077821432E-9
3.9E-5                    2.6507603731523426E-9    2.9025655185988534E-9    5.02378051272883E-9      3.804163693722502E-9     3.2429599515689334E-9    -1.2324636092605004E-9   -1.8863304506546102E-9   -5.504276366441634E-9    -2.7526130772026714E-9   -3.1071969287969956E-9   -3.467106117908098E-9
3.95E-5                   2.8190529650247964E-9    2.982943468904351E-9     4.86036732336445E-9      3.2019532033120104E-9    3.2263744523889006E-9    -1.4692751303125059E-9   -2.0979491003543053E-9   -4.992573003421726E-9    -2.7510296654278486E-9   -3.2126211658843302E-9   -3.735392790165059E-9
3.9999999999999996E-5     2.9079712350714854E-9    2.9502299279578006E-9    4.471876731169594E-9     2.359206392871458E-9     3.072589049468397E-9     -1.693500939945891E-9    -2.2656277109689913E-9   -4.186891104296934E-9    -2.6457243785641227E-9   -3.215212313577657E-9    -3.897136070725114E-9
4.0499999999999995E-5     2.885688699159605E-9     2.7828664600290244E-9    3.834243884869873E-9     1.2655282735644247E-9    2.764387165215782E-9     -1.891235047740186E-9    -2.3728547220048104E-9   -3.064537843308434E-9    -2.426915135993995E-9    -3.099821835393463E-9    -3.928575796911094E-9
4.1E-5                    2.721927321349089E-9     2.465149454291226E-9     2.929751604495413E-9     -7.575706600168858E-11   2.292677628173079E-9     -2.0477986742137184E-9   -2.4012161795625795E-9   -1.613357555743285E-9    -2.0881588290846634E-9   -2.85190954076175E-9     -3.809471270287095E-9
4.15E-5                   2.3964880245806116E-9    1.9865333772397532E-9    1.746500790552398E-9     -1.6469383923134912E-9   1.656233004492732E-9     -2.148295166418301E-9    -2.3310817603303844E-9   1.6556922390078012E-10   -1.6265435347403186E-9   -2.4581376529097278E-9   -3.519725413726507E-9
4.2E-5                    1.9031146238166977E-9    1.3405072525237129E-9    2.7865604060299914E-10   -3.4187704103004E-9      8.596308560303523E-10    -2.1774582969394093E-9   -2.1441640065448067E-9   2.2562336285488506E-9    -1.0422609104498227E-9   -1.9075697925153164E-9   -3.040641827797003E-9
4.2499999999999996E-5     1.2469572383471431E-9    5.247739434972758E-10    -1.4701004966477274E-9   -5.35182755371721E-9     -8.93752815032289E-11    -2.119721625447046E-9    -1.8268036255990006E-9   4.626231401338369E-9     -3.375180494364343E-10   -1.1938586207608719E-9   -2.3591557377602914E-9
4.2999999999999995E-5     4.3806297186283486E-10   -4.568317539382673E-10   -3.480813465457072E-9    -7.394967660529079E-9    -1.1802902220253985E-9   -1.9602269431479673E-9   -1.3718785677914694E-9   7.225761213511718E-9     4.83379568353453E-10     -3.180317650660411E-10   -1.4702169311560324E-9
4.35E-5                   -5.146736821871246E-10   -1.591359428172595E-9    -5.714916654105927E-9    -9.484284924300613E-9    -2.3972897248875767E-9   -1.6864695936122755E-9   -7.783980218664868E-10   9.987738693072082E-9     1.4116461549824238E-9    7.099161376806181E-10    -3.757534746136077E-10
4.4E-5                    -1.6051949456997103E-9   -2.8544603433120415E-9   -8.114332921895781E-9    -1.1544621420072833E-8   -3.7165095119482222E-9   -1.28962333655292E-9     -4.9830268835399735E-11  1.2828765957678737E-8    2.4310798289308257E-9    1.8718431347669187E-9    9.169130241235292E-10
4.45E-5                   -2.826200116151643E-9    -4.2109235567722154E-9   -1.0605517247147726E-8   -1.3491584970618676E-8   -5.10599567576999E-9     -7.649720703560545E-10   8.070222490512804E-10    1.565029772018467E-8     3.5173534639681795E-9    3.1434597385319243E-9    2.3940877527904943E-9
4.4999999999999996E-5     -4.1614400391997654E-9   -5.6183273269852045E-9   -1.3104167800853453E-8   -1.5232154333479558E-8   -6.527193746081409E-9    -1.1181167661635803E-10  1.7815904733970592E-9    1.8340169126482618E-8    4.639935013686067E-9     4.495240675254012E-9     4.032397001409026E-9
4.5499999999999995E-5     -5.578954896781762E-9    -7.031153835947778E-9    -1.5517848174601848E-8   -1.666549104228322E-8    -7.935231653603093E-9    6.663072541747398E-10    2.8577168527681258E-9    2.0775158405697574E-8    5.764517663755173E-9     5.891880103852123E-9     5.795841650125441E-9
4.6E-5                    -7.029115600327565E-9    -8.402024522643428E-9    -1.7746392236612948E-8   -1.7686504064124843E-8   -9.278088096150345E-9    1.5604888184663277E-9    4.011316413564311E-9     2.2824672514586282E-8    6.854390991389919E-9     7.291937314233723E-9     7.635157529828804E-9
4.65E-5                   -8.448123867628408E-9    -9.679465909865889E-9    -1.9681691364411214E-8   -1.8192194684065533E-8   -1.0497118974297109E-8   2.5548819508408555E-9    5.20867652284946E-9      2.4355173498265005E-8    7.871389907761505E-9     8.648623045131973E-9     9.489338124264083E-9
4.7E-5                    -9.764721468431443E-9    -1.0804875758116166E-8   -2.1208436300138657E-8   -1.8089014793016566E-8   -1.1529898494752135E-8   3.6254082590086136E-9    6.406431686167096E-9     2.5235296315338877E-8    8.777418217979058E-9     9.91080711663646E-9      1.128813125234201E-8
4.7499999999999996E-5     -1.090695471874661E-8    -1.1711903531022479E-8   -2.2207050722661493E-8   -1.729972749523611E-8    -1.2314001394006918E-8   4.739458422237379E-9     7.553487505796106E-9     2.5341760969668256E-8    9.53589855237206E-9      1.1023476629707747E-8    1.295447878877742E-8
4.8E-5                    -1.180650921529526E-8    -1.2329454794994514E-8   -2.255986179505237E-8    -1.5768640037216588E-8   -1.2790524816023657E-8   5.856523426780751E-9     8.594091468824203E-9     2.456565727704759E-8     1.0111949793706125E-8    1.1928688154137845E-8    1.4406397345156881E-8
4.85E-5                   -1.2399684609361832E-8   -1.2587269728478451E-8   -2.2160196216685395E-8   -1.3464676182789997E-8   -1.2907142190539722E-8   6.929374544681732E-9     9.470794636841883E-9     2.2818448820950705E-8    1.0471862585796184E-8    1.2568403208066956E-8    1.5558630215889456E-8