% Model:              Untitled.mph
% Version:            COMSOL 6.0.0.405
% Date:               Jul 17 2025, 07:10
% Dimension:          1
% Nodes:              401
% Expressions:        11
% Description:        Point graph
% Time (s)                Displacement field, Y component Displacement field, Y component Displacement field, Y component Displacement field, Y component Displacement field, Y component Displacement field, Y component Displacement field, Y component Displacement field, Y component Displacement field, Y component Displacement field, Y component Displacement field, Y component
0                         -1.0011626951047406E-32  4.6015554892446084E-32   5.648135722185354E-32    2.1593415704899823E-30   3.269662028638851E-31    1.9766716692714726E-31   5.254106274786509E-32    6.0350651997275185E-33   -5.208560393698371E-31   -8.306119271063393E-31   -6.432585018973749E-30
5.0E-7                    6.728691042092403E-24    4.660816338375298E-22    -8.245975024502252E-24   -3.0990379651132947E-22  2.8698973053805586E-22   2.8378447542840896E-22   2.846519309038773E-23    9.375192327154105E-25    1.1258905466240601E-23   1.0134112492794754E-22   9.692311703652922E-22
1.0E-6                    -2.12801567964384E-23    -3.25613111261156E-22    1.3286974796103394E-22   -1.2425019231530488E-22  -4.309020381958663E-22   -1.3197484269306168E-21  -1.8892487043541355E-22  -1.580014604771441E-23   2.6866987754485117E-21   -2.21174402921318E-22    2.487736748368346E-21
1.5E-6                    6.325624022062584E-23    -7.634823785540158E-21   6.320041306272369E-22    5.707001223326003E-21    -1.7183106999330135E-21  3.519679849556783E-22    4.844391609837974E-22    6.647109678038938E-23    -1.666043039947741E-20   -4.953942715063466E-23   -4.557447256666437E-20
2.0E-6                    -5.341670243134645E-24   1.5732704260689152E-20   -1.5996711974554238E-22  -2.87366787206516E-20    -3.140094394941312E-22   1.9079143228496807E-21   -1.6134743646201753E-22  -9.959765699146476E-23   3.4218879214528775E-20   -1.0515968996709029E-21  1.6683813947842018E-19
2.4999999999999998E-6     1.3847872750515105E-22   4.303656519484538E-20    2.9319768531212377E-21   6.104574061265016E-20    2.3995880348502438E-20   2.357252682806363E-20    7.118241362924638E-22    -9.217052099836658E-23   3.3415976019848933E-20   -1.0615094612079326E-20  -1.897760932234025E-19
3.0E-6                    1.5460746089759902E-21   -1.051239251234659E-19   -4.0501104734402175E-21  -2.18639224774977E-20    -7.585016161280376E-22   -1.7303409914639854E-20  -2.7130521322437475E-21  4.0059196110087016E-22   -2.78874715467725E-19    4.400049449974355E-20    -2.5550764207861408E-19
3.5E-6                    -6.379612770862075E-21   -2.716610125977891E-19   -2.5257071648778315E-20  -5.988195255370419E-20   -1.2502355975700211E-20  -2.253517111845112E-19   -9.915283747183157E-21   2.9932460055970613E-22   1.0425768477435657E-19   -8.677427094596411E-20   5.088241862643781E-19
4.0E-6                    -9.31586424942321E-21    3.8329732977582563E-19   -1.3199830993073756E-20  1.8494726360806735E-19   4.437388252078283E-20    4.257516028836566E-20    3.570656190801915E-20    -1.2431731218397612E-21  1.3397230243952102E-18   6.015939608889921E-20    -1.2815359395781673E-20
4.5E-6                    5.891321765909276E-20    2.2925560071817996E-18   1.4275540799188375E-19   -5.600482006357672E-19   -1.989796586218458E-19   1.3813650545514462E-18   7.601889712567316E-20    -3.5511134168252526E-21  -6.800998002634067E-19   3.5148318731229457E-19   3.53959042048166E-18
4.9999999999999996E-6     8.273737017819336E-20    1.0878097941947631E-18   6.735470836790748E-19    1.1027340510273884E-18   4.440806224014619E-19    1.3177584474624079E-18   -1.6422735989246956E-19  6.094768850486046E-21    -6.6817498914748105E-18  -2.3465733354279355E-18  -5.810478125361773E-18
5.5E-6                    -3.4556909537055366E-19  -1.2601621141636912E-17  6.1878558062938355E-19   3.3975525455221E-18      3.492611881061373E-18    -4.693796438961038E-18   -5.284186699211362E-19   2.718782480354945E-20    -4.407930981185535E-18   -1.6844752325387286E-18  -3.453815815955477E-17
6.0E-6                    -6.8801736193634565E-19  -2.455778299304361E-17   -8.158793778898306E-19   -1.003316560070924E-18   2.937546678484588E-18    -1.2265796139471314E-17  3.333957621677915E-19    -2.1524182456473724E-20  2.015164148145352E-17    7.725201448295862E-18    2.194977645132492E-17
6.5E-6                    1.464842701912687E-18    3.03311476772098E-17     6.669302582164845E-18    9.192833265930897E-18    -1.1151940721329297E-17  2.9007944564599205E-18   3.201602948844668E-18    -1.6304500056405426E-19  4.7417889002173803E-17   -1.6094874592665432E-17  1.1068205390188467E-16
7.0E-6                    4.743683668714697E-18    1.6343601753687126E-16   3.072332993177551E-17    2.6081114069774465E-17   -2.833413225428318E-17   5.749173456653926E-17    3.4047843519962447E-18   7.88797908142299E-21     -2.291276971888904E-17   -1.0059277031482219E-16  -1.2564739251810153E-16
7.499999999999999E-6      -1.5886590826560584E-18  1.2414722927189439E-16   2.002552915783252E-17    -4.0374233420472706E-18  3.0148042725382574E-18   7.54854501952537E-17     -8.050213819710314E-18   7.894412440645371E-19    -2.6988115527181006E-16  -1.206534794800393E-16   -4.657398370997757E-16
8.0E-6                    -1.7776253672048354E-17  -4.474002552328172E-16   -4.6691061966265445E-17  8.947171287380911E-17    1.531183932454109E-16    -1.0637666434651472E-16  -2.5071934463302393E-17  5.221610867711048E-19    -3.2693077077061606E-16  4.193993353226411E-18    -1.922176527902899E-16
8.5E-6                    -7.056992625601202E-18   -1.1567661977651375E-15  1.3057951743946635E-16   5.610520276640528E-16    3.529282584514409E-16    -3.9963114863236544E-16  -8.841411042170506E-18   -2.8651350298403236E-18  5.278489173252446E-16    -2.7799275195610945E-16  -1.8224328980552188E-16
9.0E-6                    5.731900194897069E-17    -2.3417657056984104E-16  8.97517195040934E-16     8.939313786669865E-16    1.1282437411022806E-16   -1.2778920502137544E-16  6.617131047057011E-17    -4.0255452668149675E-18  1.5751383289617645E-15   -2.044470106093907E-15   -1.910040187665227E-15
9.499999999999999E-6      9.958653999768476E-17    3.702936964775164E-15    1.4727545866912757E-15   4.3950010683184815E-16   -1.0751127053305926E-15  1.1638018813943349E-15   1.1474132400642469E-16   7.480530291235518E-18    -2.299643162044921E-16   -5.01701328341745E-15    -3.826192073789786E-15
9.999999999999999E-6      6.178816990987537E-18    7.234029378276719E-15    3.879370011745393E-16    1.314593138598935E-15    -1.6543657124691197E-15  1.877646833127852E-15    -8.738692205249359E-18   1.99024750493797E-17     -5.3414657743259045E-15  -6.669583364758878E-15   -5.498825428009008E-15
1.05E-5                   -1.1954759778846418E-16  7.998865384411307E-16    -3.3154256949505644E-16  7.852272911973658E-15    2.8403478272095273E-15   -9.38510327488802E-16    -2.2168135854734201E-16  -6.560535954809803E-18   -6.492986479586463E-15   -8.024047203948514E-15   -1.333965013881344E-14
1.1E-5                    9.384112690862647E-17    -2.0037602885778647E-14  6.816720740035543E-15    1.8601365217299506E-14   1.2636019961459015E-14   -5.817174404329603E-15   -1.760344631012764E-16   -6.348680703754429E-17   2.0044658446793513E-15   -2.116120580314872E-14   -2.964559074117909E-14
1.15E-5                   7.954886507803077E-16    -3.364146714634953E-14   2.5058048607678072E-14   2.346273734359849E-14    1.374161696469324E-14    -3.4471747485329024E-15  9.31258125255064E-17     -3.462570898622261E-17   8.467839063082212E-15    -5.934159871763399E-14   -4.5902004435605216E-14
1.2E-5                    1.3882426470975397E-15   5.9662232460745835E-15   3.943354924691454E-14    2.3424527501456406E-14   -8.555549960258712E-15   1.1937414573026344E-14   -6.584519385428829E-17   1.4746601965750616E-16   -4.557818664568524E-15   -1.1061440419353384E-13  -6.896797465410835E-14
1.2499999999999999E-5     1.1845854999533866E-15   1.0865229813514601E-13   2.787316670442727E-14    5.0862705138461784E-14   -2.7773576548931446E-14  2.440945955670859E-14    -2.801632573486136E-16   2.5007482540412014E-16   -2.8395203232225432E-14  -1.3720127017716238E-13  -1.2365008892832782E-13
1.3E-5                    1.4762058983849104E-15   1.7047154059233678E-13   6.291239231987684E-15    1.3140556764932748E-13   2.5823292687339273E-14   6.548277688554527E-15    1.961177599526705E-15    -9.618315050422371E-17   -4.240118111006648E-14   -1.275031523309205E-13   -1.8709515046018072E-13
1.35E-5                   6.6128844412627354E-15   2.312737799990422E-14    5.0973146774785107E-14   2.0846909575964726E-13   1.6251773230637613E-13   -3.227374408584711E-14   7.020879098501508E-15    -6.967734071062964E-16   -6.99942874343664E-14    -1.5287720666010153E-13  -1.9971584788008794E-13
1.4E-5                    2.056470592437295E-14    -3.1761700966119076E-13  2.2298734394185524E-13   1.9667406354090048E-13   2.3670285461863956E-13   -2.5581118765278042E-14  7.198538306312836E-15    -4.3943678491578977E-16  -1.480820295613118E-13   -3.5244234759483737E-13  -2.610221216529143E-13
1.45E-5                   3.953587154242468E-14    -4.5109422204262374E-13  4.418599227563305E-13    2.251231196143946E-13    8.890659060719137E-14    7.195138674725381E-14    -6.094216878201519E-15   1.5596705723364057E-15   -2.0396552446798398E-13  -8.175860405457818E-13   -6.932989070321674E-13
1.4999999999999999E-5     4.987937568436339E-14    1.3200058761563972E-13   5.095360338809265E-13    7.159039312246496E-13    -1.1410672730760584E-13  1.805535598124137E-13    -2.0871471837944718E-14  3.680879553309524E-15    -1.0799177329904448E-13  -1.42818808897116E-12    -1.6134397105048754E-12
1.55E-5                   4.516508480420182E-14    1.322298633310014E-12    3.814134568193767E-13    1.8870120116281613E-12   1.7328205674431167E-13   1.5569802921085154E-13   -1.6746021236213558E-15  1.6287753250090526E-15   3.6022556887997815E-15   -1.832396274188055E-12   -2.4828304276567915E-12
1.6E-5                    5.951514280048277E-14    2.0474065778562192E-12   3.9427628298910194E-13   3.106206120869785E-12    1.297754162770608E-12    3.659069764052024E-14    6.595745499647018E-14    -5.777970968132552E-15   -3.483559161701227E-13   -1.8372047553645795E-12  -2.6058371341108012E-12
1.6499999999999998E-5     1.7355326927265167E-13   1.1407883346170816E-12   1.0239576964163403E-12   3.273927453115215E-12    2.7331775556036527E-12   1.6966707730544749E-13   1.2874347942877064E-13   -8.479852794331172E-15   -1.3654536752562928E-12  -2.0851976440682962E-12  -2.422716994798631E-12
1.7E-5                    4.419639799879308E-13    -1.071762674617607E-12   2.318519854219958E-12    2.472263909996985E-12    3.3416405998879027E-12   8.902269516895475E-13    1.1501512762325643E-13   9.899516245432036E-15    -2.3683233030339564E-12  -4.19113228999119E-12    -3.944510622954191E-12
1.75E-5                   7.953638447364557E-13    -2.2302869927104455E-12  3.856339278396329E-12    3.0913998155167473E-12   2.6903528157364513E-12   1.990396093018796E-12    8.183329796785537E-14    4.6056582923725006E-14   -2.490700429888079E-12   -9.684449553112516E-12   -9.299388278330831E-12
1.8E-5                    1.1031057714083795E-12   4.415087778338029E-13    5.70160213788626E-12     8.478502022593712E-12    2.0855753230473285E-12   2.697042054411395E-12    2.728637570552727E-13    6.108518411993524E-14    -2.365999033463737E-12   -1.8602803121832574E-11  -1.8766918449100044E-11
1.85E-5                   1.481847954576114E-12    7.51388105626011E-12     9.364865644828906E-12    1.9928169104576486E-11   3.994901002459039E-12    2.5059523726728974E-12   8.969943797873497E-13    2.7753156693894426E-14   -4.551486644151334E-12   -2.949632346985041E-11   -3.0578612820350045E-11
1.8999999999999998E-5     2.552482402295487E-12    1.6350225221727377E-11   1.707853556932537E-11    3.5252381507461036E-11   1.0318313098797675E-11   2.138300244912038E-12    1.7688760832118503E-12   2.3960867597634554E-14   -1.1376970449502743E-11  -4.101081621577873E-11   -4.266375369979583E-11
1.95E-5                   5.1879888630218925E-12   2.3264637104796627E-11   2.929721319454468E-11    5.06372625412295E-11     2.1251666315967726E-11   3.4254883829691728E-12   2.2929059970023624E-12   2.349346429491708E-13    -2.221238383581384E-11   -5.285288720633169E-11   -5.412281120221986E-11
1.9999999999999998E-5     9.824862578475913E-12    2.7439628929010116E-11   4.2883218533168726E-11   6.35597173424508E-11     3.548979252490466E-11    7.982398749701549E-12    2.078758583900406E-12    7.523566274895171E-13    -3.3363803395823565E-11  -6.44735108976802E-11    -6.466005134278493E-11
2.05E-5                   1.6112178401519744E-11   3.2866706948353134E-11   5.261709327357875E-11    7.330846614994054E-11    5.081645307871743E-11    1.6037641768226638E-11   1.7433745659883617E-12   1.3290981576992837E-12   -4.089251819796414E-11   -7.308850865613536E-11   -7.282415845828557E-11
2.1E-5                    2.3425789734237923E-11   4.5319531635334144E-11   5.529823509033028E-11    7.887535337684267E-11    6.436083685549873E-11    2.671422932838522E-11    2.9835479409475335E-12   1.4817682044026058E-12   -4.33235088309402E-11    -7.411712850039577E-11   -7.540062399881681E-11
2.1499999999999997E-5     3.159176801625921E-11    6.56759126998194E-11     5.217151687811048E-11    7.748355378666113E-11    7.327429037067508E-11    3.91922087390781E-11     7.547698645961608E-12    1.0817065802258996E-12   -4.1706853259450915E-11  -6.431323848723053E-11   -6.905063421574387E-11
2.2E-5                    4.065725822268988E-11    8.537971417388607E-11    4.648971857995198E-11    6.617196621716159E-11    7.623097891457265E-11    5.293946073727637E-11    1.5897143339754394E-11   9.06263364958457E-13     -3.7679812731424034E-11  -4.433110032637914E-11   -5.2824282238835395E-11
2.2499999999999998E-5     4.9766165827182993E-11   8.927353195589794E-11    3.853381127632811E-11    4.4684375325017984E-11   7.404622166462896E-11    6.649347045482082E-11    2.6803219930077765E-11   2.3557737332228303E-12   -3.1789581610095544E-11  -1.7841326009606875E-11  -2.9012391044609103E-11
2.3E-5                    5.667287656948971E-11    6.47442223925132E-11     2.401013113895688E-11    1.58483062765882E-11     6.771219727502084E-11    7.655062691414211E-11    3.821195158973729E-11    6.325204473197727E-12    -2.319522676805676E-11   1.198019607713725E-11    -1.0626338485874222E-12
2.35E-5                   5.88573766273507E-11     1.0299213654216438E-11   -1.73666757552978E-12    -1.7477633291318088E-11  5.550382296702119E-11    7.911633758788299E-11    4.840102206170909E-11    1.2359699697955866E-11   -1.0401438412696703E-11  4.523183815265769E-11    3.001269644552256E-11
2.4E-5                    5.4982288731072516E-11   -6.255113956349885E-11   -3.823503797371861E-11   -5.550417609251579E-11   3.291263451558514E-11    7.187634302024843E-11    5.6290487423485064E-11   1.9154666130522695E-11   7.632559976057538E-12    8.504261904864014E-11    6.754823293763E-11
2.45E-5                   4.468944206595067E-11    -1.3444250587710494E-10  -7.944930736606114E-11   -1.0107874572348174E-10  -3.845302527468696E-12   5.515867317056168E-11    6.090338386347444E-11    2.5882306718585704E-11   3.071583368292092E-11    1.3490579618233706E-10   1.1735334425475408E-10
2.4999999999999998E-5     2.6986776612644847E-11   -1.8641168344109347E-10  -1.189382838450394E-10   -1.5636404516179895E-10  -5.461511151565968E-11   3.0380616452771244E-11   6.094327355584821E-11    3.264855597309315E-11    5.778565149572337E-11    1.9598335105257773E-10   1.8325594852456755E-10
2.55E-5                   -1.6396012842122637E-13  -2.0751365354851721E-10  -1.5507202657836942E-10  -2.20598216385924E-10    -1.1598510585686711E-10  -2.1474448193869385E-12  5.50850530244257E-11     3.9426664497226066E-11   8.828951779838989E-11    2.663289566505593E-10    2.6373848671486663E-10
2.6E-5                    -3.771063856929096E-11   -1.9975160856981518E-10  -1.914571784703566E-10   -2.913482754513095E-10   -1.8448558853304934E-10  -4.348374184326836E-11   4.2496632941241397E-11   4.493868781002227E-11    1.2299575969695987E-10   3.420963041110247E-10    3.5248672460977174E-10
2.65E-5                   -8.325677769183202E-11   -1.784932566718275E-10   -2.3319938429530615E-10  -3.674387821986813E-10   -2.5815399960016934E-10  -9.413184708089295E-11   2.2823364694793407E-11   4.7179094230575865E-11   1.6294476002906264E-10   4.192115192352186E-10    4.4218999575207523E-10
2.7E-5                    -1.3215481984325935E-10  -1.666037521727018E-10   -2.829234106987819E-10   -4.4985600188957386E-10  -3.3542580037189317E-10  -1.5220167762246996E-10  -4.3222006291668834E-12  4.5030996815980256E-11   2.0760182477543023E-10   4.940504754861973E-10    5.280979533418802E-10
2.7499999999999998E-5     -1.8150807787046663E-10  -1.833380022618303E-10   -3.3906399432537933E-10  -5.391185518331942E-10   -4.1436315863567174E-10  -2.138905557389436E-10   -3.958885139868351E-11   3.877674906741292E-11    2.5447993136139064E-10   5.630312106901723E-10    6.083480269489698E-10
2.8E-5                    -2.3254321859576196E-10  -2.3373613646118225E-10  -3.9624031953978043E-10  -6.312954112810807E-10   -4.940743469736288E-10   -2.7616019017009385E-10  -8.333944885071279E-11   2.8691868273025704E-11   3.0056306551093287E-10   6.220244062858858E-10    6.814204982922198E-10
2.8499999999999998E-5     -2.8827121982843957E-10  -3.0565749931105263E-10  -4.4672210551200097E-10  -7.165500066953618E-10   -5.756784715314489E-10   -3.392354673114031E-10   -1.3472766947973867E-10  1.34878007998496E-11     3.434353590721644E-10    6.662742807297277E-10    7.437695361913037E-10
2.9E-5                    -3.4898257415623867E-10  -3.764070105384954E-10   -4.824768818401664E-10   -7.821946851969672E-10   -6.595485132426259E-10   -4.0648465673289523E-10  -1.913249833705619E-10   -9.40129047982423E-12    3.806614434965573E-10    6.908942007934039E-10    7.897657594222521E-10
2.95E-5                   -4.1075125461317737E-10  -4.2351624960721556E-10  -4.972534758253391E-10   -8.180898927229505E-10   -7.405374207076045E-10   -4.813712771553921E-10   -2.4991842396091657E-10  -4.1970744853822214E-11  4.0869927030928893E-10   6.915843427149549E-10    8.128876785118783E-10
2.9999999999999997E-5     -4.683284577982846E-10   -4.3257600656192297E-10  -4.877495955370876E-10   -8.196494700573155E-10   -8.066705809127457E-10   -5.635992714417079E-10   -3.0813358187347943E-10  -8.415075935481969E-11   4.234019234929617E-10    6.647907376413226E-10    8.059497897049098E-10
3.05E-5                   -5.184957886286454E-10   -4.0016424072542257E-10  -4.5333829582599507E-10  -7.857773507206988E-10   -8.436277874125148E-10   -6.4718757693997E-10     -3.6555662577536104E-10  -1.337930852422533E-10   4.218870235667261E-10    6.065576300742037E-10    7.604651120406894E-10
3.1E-5                    -5.597543407021066E-10   -3.3419710388060245E-10  -3.948610065825468E-10   -7.140216391657529E-10   -8.408853771752897E-10   -7.215928923351268E-10   -4.2305506036412517E-10  -1.8767747618860068E-10  4.035206461133446E-10    5.107542221406057E-10    6.672416086200618E-10
3.15E-5                   -5.890227904153077E-10   -2.5203990569678927E-10  -3.132519467666389E-10   -5.977602120499514E-10   -7.937597218544689E-10   -7.747617335740771E-10   -4.805006693789563E-10   -2.426445248982105E-10   3.687132727557005E-10    3.6897798249146614E-10   5.187570209960168E-10
3.2E-5                    -5.996287653004894E-10   -1.7345193374421073E-10  -2.0815159138547053E-10  -4.2777515646308064E-10  -7.004311240344333E-10   -7.960622431646924E-10   -5.348273466346784E-10   -2.964087939468971E-10   3.1669282085573325E-10   1.7346665394737442E-10   3.111412978202144E-10
3.25E-5                   -5.831205620958246E-10   -1.0853991379369764E-10  -7.663752260358778E-11   -1.9634739036566354E-10  -5.579945813412929E-10   -7.777994198233808E-10   -5.802240007362184E-10   -3.478135398798014E-10   2.4429745948125067E-10   -7.898128047695787E-11   4.391340011011831E-11
3.2999999999999996E-5     -5.328216228050276E-10   -4.819399686842766E-11   8.689594906718247E-11    9.952530958030077E-11    -3.6130797153325446E-10  -7.152704088245209E-10   -6.100931674304995E-10   -3.963193756116423E-10   1.4658121871749371E-10   -3.8559322622794724E-10  -2.81604935294115E-10
3.35E-5                   -4.451877727835492E-10   3.399069048487353E-11    2.8853979004979293E-10   4.574492824479184E-10    -1.0461781172476502E-10  -6.059094604526102E-10   -6.186881435867452E-10   -4.4092842294550903E-10  1.8573912202075975E-11   -7.395668742604276E-10   -6.630707267319153E-10
3.4E-5                    -3.1786646067481044E-10  1.6748410060944942E-10   5.308966814563625E-10    8.707767787965605E-10    2.1634702335057086E-10   -4.480353426119683E-10   -6.01170374951674E-10    -4.792084364921197E-10   -1.4284616910114137E-10  -1.1326964642863062E-9   -1.09647255741676E-9
3.45E-5                   -1.472850888623165E-10   3.675657884120666E-10    8.098474098533274E-10    1.3299723198924447E-9    6.03143901736321E-10     -2.3974327585592395E-10  -5.529943610897289E-10   -5.069871408393226E-10   -3.377424285989719E-10   -1.556027021591747E-9    -1.5749654120553019E-9
3.5E-5                    7.103042196924021E-11    6.265472837191535E-10    1.1144445572831521E-9    1.8234366938281937E-9    1.053633968890081E-9     2.1346138119744458E-11   -4.701050277333558E-10   -5.188219185289327E-10   -5.629365456650649E-10   -1.9987928439427673E-9   -2.0879395532630827E-9
3.5499999999999996E-5     3.3957135742119103E-10   9.183277717818295E-10    1.429961615090348E-9     2.338243959194871E-9     1.560366258302467E-9     3.3713004162782576E-10   -3.4982643323487734E-10  -5.090068898061334E-10   -8.125668786713004E-10   -2.4474867530189937E-9   -2.620436590812997E-9
3.6E-5                    6.56450270809337E-10     1.2123025480843616E-9    1.7416906054525837E-9    2.8610672929950713E-9    2.108989788058867E-9     7.075301710837154E-10    -1.9099167347280427E-10  -4.726483525243795E-10   -1.0785805449987578E-9   -2.8856587614345487E-9   -3.1531223201440547E-9
3.65E-5                   1.0157022436441502E-9    1.4875948610144967E-9    2.0366703470595903E-9    3.3779697598792976E-9    2.678556962545141E-9     1.129721574446876E-9     7.247361771409837E-12    -4.0618772528746317E-10  -1.350734152312286E-9    -3.293595288255769E-9    -3.6631313785912133E-9
3.7E-5                    1.4093735962304008E-9    1.7388637586122568E-9    2.302385751995762E-9     3.871502227268184E-9     3.244421343515439E-9     1.5984959524640097E-9    2.466449011885662E-10    -3.0708799514279354E-10  -1.6166517725405657E-9   -3.647650270874618E-9    -4.125355667505632E-9
3.75E-5                   1.8288736790196849E-9    1.9699546705261623E-9    2.5239882713582236E-9    4.316512752209903E-9     3.781690054030544E-9     2.1066344245607373E-9    5.295747408733437E-10    -1.7321184207795082E-10  -1.8626595347413083E-9   -3.9204009698532265E-9   -4.512987003925141E-9
3.7999999999999995E-5     2.264275184393695E-9     2.1797087255165533E-9    2.682672227560923E-9     4.678983621929972E-9     4.2661867459336015E-9    2.643786156996829E-9     8.573009848229439E-10    -2.7394697344649533E-12  -2.075133777600632E-9    -4.0825026622471215E-9   -4.7967200000844386E-9
3.85E-5                   2.7023053922506686E-9    2.3506631847181017E-9    2.7567539527501833E-9    4.920283008962909E-9     4.672405522830413E-9     3.193795809197062E-9     1.2282124164665335E-9    2.0529077195355198E-10   -2.2413654486889256E-9   -4.1053220803707E-9      -4.943724634707434E-9
3.9E-5                    3.1245487671534122E-9    2.4501361342213218E-9    2.7249040545763036E-9    5.003715426876434E-9     4.9712521359386886E-9    3.732284050843944E-9     1.6369579853507454E-9    4.505849018681576E-10    -2.349501727617543E-9    -3.962750925776169E-9    -4.918425621289869E-9
3.95E-5                   3.5068369276241636E-9    2.4437634740517922E-9    2.569656865799696E-9     4.897945089225592E-9     5.130325381165224E-9     4.226701316929447E-9     2.0740945884806336E-9    7.317063807104531E-10    -2.3881397553992315E-9   -3.6320874965799225E-9   -4.685989397093262E-9
3.9999999999999996E-5     3.820062350084072E-9     2.3118637585488242E-9    2.2795024659681785E-9    4.57578332936009E-9      5.11626121625308E-9      4.639617723681614E-9     2.5255080462438664E-9    1.0458889800314844E-9    -2.3463257140832665E-9   -3.0952829319647083E-9   -4.217170271544617E-9
4.0499999999999995E-5     4.0322743321444966E-9    2.0576960417930246E-9    1.8490158177375958E-9    4.012018189050486E-9     4.896717758989573E-9     4.933778499530146E-9     2.9717767667347915E-9    1.3876450390082488E-9    -2.2141273455281173E-9   -2.3410325381667753E-9   -3.491987624767258E-9
4.1E-5                    4.111626478002332E-9     1.7034307846880388E-9    1.277692284826799E-9     3.184383649810147E-9     4.441382346064998E-9     5.076024452515533E-9     3.388456455361676E-9     1.746824822254179E-9     -1.98347965964921E-9     -1.3665247788308534E-9   -2.500667426960735E-9
4.15E-5                   4.029321154897397E-9     1.276921865983969E-9     5.688226346243505E-10    2.07785999868831E-9      3.7238670305776174E-9    5.03776193519376E-9      3.747846844714396E-9     2.1081211588951255E-9    -1.6489165360967527E-9   -1.7786545345866938E-10  -1.2424628948958867E-9
4.2E-5                    3.76152227107511E-9      7.956865166101121E-10    -2.7046538093771696E-10  6.893800029905807E-10    2.725528913534435E-9     4.792322853915302E-9     4.021524711726716E-9     2.4530963775988263E-9    -1.2078807492444836E-9   1.2100609624912186E-9    2.7542058006089333E-10
4.2499999999999996E-5     3.289786793720613E-9     2.557500065169525E-10    -1.2278760732267112E-9   -9.694594331993332E-10   1.4391736160240516E-9    4.312466125442974E-9     4.182142872134624E-9     2.763286794122595E-9     -6.606467035288112E-10   2.773001930382552E-9     2.0367609300124666E-9
4.2999999999999995E-5     2.600606284776137E-9     -3.66954408429193E-10    -2.284244542123716E-9    -2.8718055364784955E-9   -1.3004414353731206E-10  3.5716341019566305E-9    4.203668643049444E-9     3.0216707935585984E-9    -1.04780827577715E-11    4.476069041731033E-9     4.012995766528558E-9
4.35E-5                   1.6851468435814355E-9    -1.0999809102565878E-9   -3.4124716429957055E-9   -4.976177939514877E-9    -1.9659622360676865E-9   2.549481812822607E-9     4.060950066617778E-9     3.2113780709746065E-9    7.352736679477743E-10    6.27285112437796E-9      6.159676974227983E-9
4.4E-5                    5.3982283035341E-10      -1.9508245287113947E-9   -4.577316518999925E-9    -7.2278306198292E-9      -4.041454264192752E-9    1.238365116375457E-9     3.730567499241877E-9     3.31325745887265E-9      1.5633805238900355E-9    8.105442988109978E-9     8.41520328663706E-9
4.45E-5                   -8.322468260842212E-10   -2.892859119060382E-9    -5.7358960065753215E-9   -9.5603046809964E-9      -6.315137823094044E-9    -3.532264744340604E-10   3.193888017901811E-9     3.304851395821783E-9     2.453595001535806E-9     9.905221529686011E-9     1.0702635763317236E-8
4.4999999999999996E-5     -2.41886981907883E-9     -3.872482763783448E-9    -6.839233821677247E-9    -1.1895881022271078E-8   -8.727102584360416E-9    -2.2012872804450826E-9   2.4407137473464103E-9    3.1618084962650498E-9    3.3792540036013388E-9    1.1594412188630355E-8    1.2933305605541078E-8
4.5499999999999995E-5     -4.1955777300906025E-9   -4.833215952045536E-9    -7.83508410453827E-9     -1.4144430702130567E-8   -1.1197795873332605E-8   -4.268644046882956E-9    1.4705756470939292E-9    2.860884420689367E-9     4.309264706057399E-9     1.3088776052964936E-8    1.5010472671292135E-8
4.6E-5                    -6.1226543444860375E-9   -5.7388562799102014E-9   -8.670704607535436E-9    -1.620298045585297E-8    -1.3631219735217342E-8   -6.506396435568831E-9    2.905200725138715E-10    2.383239331561218E-9     5.21009530857811E-9      1.4301319577643198E-8    1.6832453927884254E-8
4.65E-5                   -8.144346721876023E-9    -6.578487812840197E-9    -9.293556683061256E-9    -1.7959539541432634E-8   -1.591977805487985E-8    -8.853974582237876E-9    -1.0882815075649587E-9   1.7172712770214634E-9    6.046902222591184E-9     1.5146457788556597E-8    1.829568490810714E-8
4.7E-5                    -1.0191239455520244E-8   -7.350340748558535E-9    -9.650428583553178E-9    -1.9301470704520527E-8   -1.7948068954744103E-8   -1.123904122060134E-8    -2.6513126701983068E-9   8.604943999244103E-10    6.784152006047279E-9     1.554423465600475E-8     1.9298100969476848E-8
4.7499999999999996E-5     -1.2184323315362346E-8   -8.037631103521783E-9    -9.688822029955038E-9    -2.0124139600412214E-8   -1.9595943478959317E-8   -1.3578243321779324E-8   -4.3774238658370846E-9   -1.799347500656412E-10   7.386640971411752E-9     1.5424558581897833E-8    1.974276072560966E-8
4.8E-5                    -1.403808283795968E-8    -8.59550011668825E-9     -9.363478709133427E-9    -2.033553323763252E-8    -2.0742879164140642E-8   -1.577879028529043E-8    -6.233731926121583E-9    -1.3877752816813552E-9   7.821344353799446E-9     1.4731382766679872E-8    1.9541785706962925E-8
4.85E-5                   -1.5661579886778075E-8   -8.959748517703718E-9    -8.64543298539615E-9     -1.9857202444697017E-8   -2.1274371933266928E-8   -1.7740429173922446E-8   -8.172293198132874E-9    -2.738299680224527E-9    8.059724749111692E-9     1.3426593415065265E-8    1.8621195740485223E-8