% Model:              Untitled.mph
% Version:            COMSOL 6.0.0.405
% Date:               Jul 15 2025, 13:25
% Dimension:          1
% Nodes:              401
% Expressions:        11
% Description:        Point graph
% Time (s)                Displacement field, Y component Displacement field, Y component Displacement field, Y component Displacement field, Y component Displacement field, Y component Displacement field, Y component Displacement field, Y component Displacement field, Y component Displacement field, Y component Displacement field, Y component Displacement field, Y component
0                         -8.395786596345583E-30   -6.013038250541002E-30   -1.973267281893123E-30   -2.401956280960936E-31   3.83515383535031E-30     1.6626578588427325E-31   -7.064295279190469E-37   -6.982864437565083E-38   -1.407632113706926E-32   -4.2764631853828494E-33  -8.622597073593348E-34
5.0E-7                    3.203226929111284E-22    6.069910730932712E-22    2.809550479139336E-22    3.9272641453111725E-23   -5.663956456975833E-22   -1.0376260748734353E-22  -5.072003743797297E-28   6.1423399819853945E-28   -5.5820145040770314E-24  -7.84050271624038E-24    -3.8875701701480995E-25
1.0E-6                    6.6571097447626025E-21   1.9987675846919287E-21   -5.183684354295968E-22   -1.0550331688371468E-23  3.566439005226881E-22    3.0101860103594223E-22   -4.763577509409881E-28   1.4275846410717943E-28   1.754923507967933E-23    1.4265300835186548E-23   4.795960088814941E-25
1.5E-6                    -3.399928736814935E-20   -1.6498514603678378E-20  -2.2657022612110874E-22  -5.302226887320962E-22   4.648402093460518E-21    1.8004581120676546E-21   -4.145718503147265E-27   -1.6135680154511226E-26  4.832075634530302E-23    9.084273264204383E-23    -1.3129630066229152E-24
2.0E-6                    7.94604046836984E-20     4.5878253323204237E-20   4.734905810696458E-21    -5.665478101111441E-22   -2.124797608448497E-20   -4.464318631516689E-21   3.050939003419985E-26    3.691771853615969E-28    -6.346116526821469E-24   -6.818602691211042E-23   1.9235314527986378E-23
2.4999999999999998E-6     -2.958789551083649E-20   -3.6176320357182727E-20  -1.0934345627424111E-20  6.785633370221444E-21    3.1583029945515514E-20   -1.7251820877470908E-20  7.003074440250082E-26    1.7745992577395689E-25   -7.342960309360932E-22   -8.592839728384694E-22   2.9891050701325745E-23
3.0E-6                    -3.660987700462359E-19   -1.5114369995327067E-19  -1.8340448939098186E-20  3.618572637696206E-21    4.197052835417027E-20    2.7576635856704337E-20   -6.030253872473007E-26   1.5791295029991897E-25   -2.2782751497261175E-22  2.2286420011241716E-22   -2.109084290576193E-22
3.5E-6                    4.89406786460796E-19     3.757873748715073E-19    2.311502124526466E-20    -6.540572997844459E-20   -1.4602540674756617E-19  1.2300131220704884E-19   -1.4086043544467264E-24  -1.358345787677548E-24   4.687558133986572E-21    5.439189462651022E-21    -6.029238428796224E-22
4.0E-6                    1.8717396826914125E-18   5.816856955298633E-19    6.858075253098398E-20    -5.690696958598189E-20   -7.080017067970827E-20   -1.384322502857433E-19   -2.823309736424707E-24   -2.588252612484158E-24   2.175601051456558E-21    -1.1428815725214954E-22  1.1948490601040414E-21
4.5E-6                    -4.533994377838386E-18   -3.661109909394608E-18   -1.3542986445426335E-19  4.106498003335583E-19    1.0049148759263276E-18   -5.866801807594124E-19   1.2992630789252563E-23   5.6874688260352836E-24   -2.3778132449309624E-20  -2.8931585002274464E-20  6.177945727325009E-21
4.9999999999999996E-6     -6.3659021686403316E-18  -2.077433719176179E-18   -4.532797101857109E-19   6.212105189820587E-19    -7.039814749294394E-19   5.617019486854986E-19    3.7466747257689466E-23   2.069181037867552E-23    -8.59983370939403E-22    -1.3402576829576974E-21  -1.0446921554083608E-21
5.5E-6                    2.3288423621159634E-17   2.0224445742310627E-17   -1.514690093637082E-18   -2.2661388140652405E-18  -2.6191509283498166E-18  2.548498813239813E-18    -7.386886005293931E-23   1.4759465085913496E-24   1.0057347871548601E-19   1.2943016114942793E-19   -3.991024575179028E-20
6.0E-6                    4.770432456746994E-19    5.5050618515632314E-18   -1.3985340526573037E-18  -6.593390544242739E-18   9.588618836856439E-18    -1.5180211782007806E-18  -2.508813374188391E-22   -7.227862667111049E-23   -6.940819319092339E-20   1.4766057625291748E-20   -3.95252729310602E-20
6.5E-6                    -8.388638192491716E-17   -8.308763277962778E-17   8.288635229842106E-18    4.1051267042142976E-18   1.7073242231734665E-18   -1.090222276982087E-17   3.2842073505387805E-22   -1.2464523336696617E-22  -4.959989324362393E-19   -4.938233525988913E-19   1.4958114389301993E-19
7.0E-6                    7.093428535378385E-17    -8.12107901197733E-17    3.4872506201432353E-19   3.352880528717032E-17    -2.370228922017866E-17   3.081004862962623E-19    1.095529776760708E-21    -7.538127606560684E-23   1.5948247612883746E-19   -2.2649883115056384E-19  3.1683340441587527E-19
7.499999999999999E-6      1.5057152155451133E-16   1.1340091076523572E-16   -1.0029495121759523E-16  5.611413813030804E-19    9.085242536986008E-17    4.4775018264358695E-17   -2.0179379890473936E-21  3.6849773825979876E-22   1.8445043404778114E-18   1.2974193455132837E-18   -2.4682491201443075E-19
8.0E-6                    -6.314658914281935E-16   3.120388078026836E-16    -1.8523335793537716E-16  -1.8262889563266117E-16  1.328908191596456E-16    4.450009226856744E-17    -5.6160500495709445E-21  1.9024757966193223E-21   -3.021152524216462E-19   1.0995742232947039E-18   -1.3091967485388358E-18
8.5E-6                    -5.430394692803672E-16   4.1108433932707226E-17   1.0156428414487902E-16   -2.758131497494236E-16   -3.152083960603E-16      -9.559864995367657E-17   1.038469103539192E-20    2.2778007431229084E-21   -8.482993795244773E-18   -2.306619483326258E-18   -7.5833794220995365E-19
9.0E-6                    1.979807251764748E-15    -1.9308616649684216E-15  2.499339943720296E-16    1.2927123707884943E-16   1.8512519182555665E-16   -2.1443632648029168E-16  3.5352415808406515E-20   -6.87764100931735E-21    -9.021650810905347E-18   -4.384748641768761E-18   2.1685161202756558E-18
9.499999999999999E-6      3.0236883931061555E-17   -4.906461521884525E-15   -1.7270123546992699E-15  3.2309971933311673E-16   3.109344635256459E-15    1.3162824575714475E-16   -2.2013052780530222E-20  -2.2394877866136698E-20  7.203968628868823E-18    -5.0434800173196475E-18  3.9499455163194246E-18
9.999999999999999E-6      -1.090044230833565E-14   -1.4419144666339938E-15  -5.538532740273105E-15   -1.7421628002955276E-15  3.420109900207224E-15    1.0383088235083231E-15   -1.7905141874106743E-19  -1.2791946426024247E-21  -8.034758162351856E-18   -8.144270344280249E-18   1.2234964647978658E-18
1.05E-5                   -1.1994694099195493E-14  8.578267686612826E-15    -6.851293357817315E-15   -6.356919510664347E-15   -2.173658039785694E-15   1.6093643403348156E-15   -1.309014669242208E-19   8.984528608636159E-20    -1.134972774915423E-16   3.7223076437931606E-18   -6.187397331626036E-18
1.1E-5                    6.691758486616521E-15    -8.779734183133458E-15   -1.0268961436919062E-14  -1.1194128935738404E-14  6.6365422996719884E-15   7.67346911842619E-16     4.74983928295086E-19     1.397736718451354E-19    -2.1942560920547557E-16  2.6726110591253387E-17   -2.0186380420422975E-17
1.15E-5                   -8.20868690790698E-15    -8.348490232977155E-14   -3.783805721645241E-14   -1.9733089957771317E-14  5.2513166046936996E-14   -2.178985469692358E-16   1.2073914291818143E-18   -6.062046243377042E-20   -2.5513075415538263E-16  -7.248579169975278E-17   -3.2423550996942475E-17
1.2E-5                    -1.0581646722766734E-13  -1.4985139195960077E-13  -1.0122232947450847E-13  -4.855771140923033E-14   1.0207523078867583E-13   4.2682169649735246E-15   5.662034222884194E-19    -4.444875869497958E-19   -7.695690040304972E-16   -4.04436791889605E-16    -7.615489169632695E-19
1.2499999999999999E-5     -2.1430513309830677E-13  -1.3390406506025944E-13  -1.9747344723794242E-13  -1.2022671632469189E-13  1.258546445525241E-13    2.2643586908253886E-14   -2.804546655261227E-18   -5.143657432460083E-19   -2.6965973191407208E-15  -6.313657210208546E-16   9.489690402681048E-17
1.3E-5                    -2.836520698173569E-13   -2.5005019844356667E-13  -4.0922658825434637E-13  -2.6815655571152473E-13  2.8434658689900516E-13   5.928037730412672E-14    -6.7011889283648895E-18  2.216693517130126E-19    -5.87003461028689E-15    -3.2009426102825816E-16  1.1775780415375843E-16
1.35E-5                   -5.57928548998355E-13    -9.402582896731645E-13   -9.499384838628303E-13   -5.843903617782782E-13   8.663849781826571E-13    1.0666569685333434E-13   -1.0442142007155424E-18  2.1491205250521766E-18   -9.99787584548638E-15    -5.393467448923682E-16   -1.7709977340998722E-16
1.4E-5                    -1.3651763700797546E-12  -2.2292532214638294E-12  -1.967485724405312E-12   -1.2504097715607841E-12  1.88926322257885E-12     1.608003205921354E-13    2.5439374907033878E-17   5.5003708152936994E-18   -2.0653190656657286E-14  -4.0444404796363294E-15  -7.647523315568059E-16
1.45E-5                   -2.630031369024874E-12   -3.688739799401736E-12   -3.5295364750738524E-12  -2.4934589558429296E-12  3.1903041923426516E-12   2.854421133925304E-13    5.591845516011426E-17    6.984193832797606E-18    -5.1955882458524243E-14  -1.1578760166589684E-14  -1.1654701316883684E-15
1.4999999999999999E-5     -4.3264620236691505E-12  -5.899870716725016E-12   -6.301699955094712E-12   -4.6485584319527306E-12  5.479026539186666E-12    6.611158585853655E-13    3.2367090361709516E-17   -3.381789272233888E-18   -1.1714651795513595E-13  -1.9607014662058333E-14  -1.1188573202011385E-15
1.55E-5                   -7.711661423542283E-12   -1.1320397139646008E-11  -1.1943766331581364E-11  -8.511329966300114E-12   1.0798937791181707E-11   1.4651121634710856E-12   -6.143398652594575E-17   -2.5889982216108694E-17  -2.251003931012543E-13   -2.8379386954622583E-14  -1.5416623231250639E-15
1.6E-5                    -1.4984808763154962E-11  -2.1857450477417544E-11  -2.161825079962483E-11   -1.547957394534457E-11   2.0695570274509385E-11   2.632137541889125E-12    -6.2930794461476E-17     -1.2503949999878334E-17  -4.130431770392153E-13   -5.4288954386491344E-14  -4.1792720910406615E-15
1.6499999999999998E-5     -2.675749535726951E-11   -3.5505550479297416E-11  -3.3884431533534606E-11  -2.658484501744722E-11   3.384331576085555E-11    3.943804089666437E-12    3.2266925850704086E-16   1.2608643825798114E-16   -7.899866357146366E-13   -1.252657727782276E-13   -1.014761044125092E-14
1.7E-5                    -4.0923206075350895E-11  -4.7733096308062413E-11  -4.560886589126362E-11   -4.0876872935842466E-11  4.676179274957193E-11    5.695226515357661E-12    1.2058028690350193E-15   3.8677462519079047E-16   -1.5167278451629387E-12  -2.584263128672093E-13   -2.067352587328621E-14
1.75E-5                   -5.5294304792394695E-11  -5.704586059804133E-11   -5.5562457399202556E-11  -5.539549824791706E-11   5.7186262562117577E-11   9.157400725062876E-12    2.349753825677734E-15    5.402402176291815E-16    -2.7447210110775218E-12  -4.58123316288257E-13    -4.1825686014540704E-14
1.8E-5                    -6.991189489596354E-11   -6.646636631898394E-11   -6.513981610063847E-11   -6.76326201568342E-11    6.539212187415713E-11    1.5680438790202565E-11   3.661898272881073E-15    3.9484605399169526E-16   -4.656521650660111E-12   -7.610857809773626E-13   -8.762612350413307E-14
1.85E-5                   -8.456832074996757E-11   -7.763608198532079E-11   -7.43731675621744E-11    -7.754434686326139E-11   7.182315934634312E-11    2.4885083641896972E-11   6.138600638075954E-15    5.852565687790471E-16    -7.56971931304316E-12    -1.2897831661651836E-12  -1.7393631896866963E-13
1.8999999999999998E-5     -9.545321685452211E-11   -8.62994186539785E-11    -7.96875091549349E-11    -8.58805330854967E-11    7.521179505461969E-11    3.424145268008259E-11    1.2671557190033181E-14   2.9788638342761094E-15   -1.1744866431817002E-11  -2.2504349737802533E-12  -3.1104988260735346E-13
1.95E-5                   -9.765953398523468E-11   -8.703911156612646E-11   -7.790770918096555E-11   -9.089246319669877E-11   7.420105521674521E-11    4.1268815833722336E-11   2.8691805643411286E-14   9.361203944929879E-15    -1.6799801720361624E-11  -3.868237232236017E-12   -5.223023035297668E-13
1.9999999999999998E-5     -9.079808301696306E-11   -8.055381899265845E-11   -7.068241537351644E-11   -8.869053568997518E-11   6.931794226175241E-11    4.609347333221475E-11    6.271472401846587E-14    1.926904173590414E-14    -2.144245072344513E-11   -6.296584605104338E-12   -8.985530377616683E-13
2.05E-5                   -7.886446751053971E-11   -7.165730767351633E-11   -6.220953062862785E-11   -7.748337285605079E-11   6.156495950094544E-11    5.084839967971973E-11    1.2605491633422595E-13   3.136678726839334E-14    -2.4235770745527507E-11  -9.512346096524483E-12   -1.6323073992216041E-12
2.1E-5                    -6.419524373514213E-11   -6.017431261186556E-11   -5.316443988532557E-11   -5.958455659175574E-11   4.970443599308694E-11    5.5981641904531106E-11   2.3285668116904665E-13   5.1253413390019256E-14   -2.4751628720456282E-11  -1.3199283550985088E-11  -2.9373814697391186E-12
2.1499999999999997E-5     -4.421224828805637E-11   -3.8413654431420406E-11  -3.8516278924222376E-11  -3.7690046268217445E-11  3.049297035084265E-11    5.7958208743216596E-11   4.0712005016908994E-13   9.892040667968181E-14    -2.3645831439587534E-11  -1.6682658879003776E-11  -4.856497879343696E-12
2.2E-5                    -1.39927870817988E-11    7.082155163316746E-13    -1.086871789372652E-11   -1.0096903095685006E-11  1.0930726871889593E-12   5.193368036636746E-11    7.025867198646682E-13    2.0283418281181698E-13   -2.153585994761007E-11   -1.9028807993232194E-11  -7.1411862638043354E-12
2.2499999999999998E-5     3.095088934580475E-11    5.668343945522317E-11    3.4675901181234926E-11   2.8934578076618338E-11   -4.066536995192899E-11   3.685929673278224E-11    1.2239996833762204E-12   3.8244930418015076E-13   -1.826294777376266E-11   -1.937241234449613E-11   -9.400521216158467E-12
2.3E-5                    9.419480276879784E-11    1.2495843530465412E-10   9.804307585232043E-11    8.443358117518218E-11    -9.823424122008613E-11   1.668879546310179E-11    2.1190550026354964E-12   6.484826317281022E-13    -1.3419364579048235E-11  -1.7352832942151422E-11  -1.1409697348506053E-11
2.35E-5                   1.768329034442667E-10    2.0442161479582852E-10   1.7599341792853705E-10   1.5747747279855502E-10   -1.7545327570437354E-10  -4.3871048527001434E-12  3.5230647015756753E-12   1.0468210734115578E-12   -6.986451303355766E-12   -1.3299942685727026E-11  -1.3165273215791009E-11
2.4E-5                    2.7519013137771157E-10   2.977420950101826E-10    2.6629461532245744E-10   2.46424221187E-10        -2.7146506086784265E-10  -2.7198531540551996E-11  5.4821622507465986E-12   1.7136523888183672E-12   1.1267818517751656E-12   -7.83567354250802E-12    -1.4489047458787528E-11
2.45E-5                   3.8289909724861E-10      4.0567128334979835E-10   3.6881615493036443E-10   3.498180549051292E-10    -3.782166342330271E-10   -5.709878762829344E-11   7.896712399828932E-12    2.854270736375209E-12    1.1936056201048627E-11   -1.1372531085387589E-12  -1.4626236643499426E-11
2.4999999999999998E-5     4.968184667660512E-10    5.24708861645207E-10     4.823321564443463E-10    4.669039333372771E-10    -4.860755593831827E-10   -9.878628775187246E-11   1.0480373925070415E-11   4.5992567033001724E-12   2.717983103268977E-11    7.30809020900983E-12     -1.249472222771313E-11
2.55E-5                   6.192777260538802E-10    6.503546587700471E-10    6.031949732925024E-10    5.954289245147815E-10    -5.918997102674984E-10   -1.5286950520092763E-10  1.2702212787786596E-11   6.8195402016180525E-12   4.8053195379160575E-11   1.80759666402692E-11     -7.504812097768833E-12
2.6E-5                    7.530384001202684E-10    7.795376983732736E-10    7.285775030911945E-10    7.300732569136641E-10    -6.995208347664668E-10   -2.171073601654892E-10   1.3764433829027407E-11   9.051312373721632E-12    7.419938108133316E-11    3.111215111971603E-11    -1.1892623818034985E-14
2.65E-5                   8.944922609022311E-10    9.090298052005452E-10    8.577573951852066E-10    8.640894487648824E-10    -8.127503571881238E-10   -2.890791465640203E-10   1.2768494241100189E-11   1.0592692064101326E-11   1.0394633054845634E-10   4.593001758105569E-11    9.230157362427787E-12
2.7E-5                    1.0325822016308334E-9    1.0334960510581538E-9    9.878773325440442E-10    9.924889313516637E-10    -9.299835215372833E-10   -3.668949959716507E-10   9.106956378825657E-12    1.0696634910502632E-11   1.3556357818391873E-10   6.228929473434125E-11    1.9961791902538658E-11
2.7499999999999998E-5     1.1545415586833894E-9    1.1456914461553204E-9    1.1108791531459533E-9    1.112657422071736E-9     -1.0441148213754057E-9   -4.48649463944474E-10    2.8120724358241086E-12   8.78136672605282E-12     1.6839957724123323E-10   8.014825549214744E-11    3.2457698827122186E-11
2.8E-5                    1.2522173163411003E-9    1.236967001683506E-9     1.2163485140685571E-9    1.220934411419636E-9     -1.143640397896081E-9    -5.323867626120954E-10   -5.495994517137813E-12   4.670853151413917E-12    2.027706900970613E-10    9.88630854807841E-11     4.661458788717448E-11
2.8499999999999998E-5     1.3215834691781275E-9    1.2971443792177063E-9    1.2948888871679307E-9    1.308480949872145E-9     -1.2140401268336091E-9   -6.159788137235064E-10   -1.5027642123561995E-11  -1.1714940057746488E-12  2.3865046436651857E-10   1.1695485461586873E-10   6.132052725212803E-11
2.9E-5                    1.3555403872524645E-9    1.3151610519510665E-9    1.33704002132292E-9      1.360889670037663E-9     -1.2424111083405783E-9   -6.957741971899354E-10   -2.5127757483046645E-11  -7.664302525517777E-12   2.7453670396999896E-10   1.330656459765845E-10    7.501565300870356E-11
2.95E-5                   1.3390982469561936E-9    1.2801721635973918E-9    1.331034172912464E-9     1.3620429678290152E-9    -1.2216298549060576E-9   -7.652490664906854E-10   -3.515368821229834E-11   -1.3644401831283587E-11  3.0758627347626013E-10   1.4697825705087496E-10   8.676998187140731E-11
2.9999999999999997E-5     1.2540989297315698E-9    1.1812923264693932E-9    1.2635903090229373E-9    1.2984026652345683E-9    -1.1468938152538323E-9   -8.159097340313952E-10   -4.429837002783812E-11   -1.8724092192628675E-11  3.344931055734939E-10    1.5930782033861476E-10   9.656200388308647E-11
3.05E-5                   1.0881899433152988E-9    1.0066491367885219E-9    1.1225954501641737E-9    1.1601149201068922E-9    -1.0087409807991725E-9   -8.401002054106541E-10   -5.1948279629884886E-11  -2.3742466910981578E-11  3.5204545158528496E-10   1.6996145062363873E-10   1.0457048479954764E-10
3.1E-5                    8.36814099076355E-10     7.441604207643928E-10    8.987847987835905E-10    9.39149848971964E-10     -7.93686979123458E-10    -8.325248862744611E-10   -5.839202607452388E-11   -3.020454167883732E-11   3.5737701263822047E-10   1.7684503778641024E-10   1.105014377953114E-10
3.15E-5                   4.96629138087821E-10     3.842076346687166E-10    5.853633380980743E-10    6.273469793745015E-10    -4.912270507390076E-10   -7.885928584474362E-10   -6.486643515097307E-11   -3.9002929660437996E-11  3.4832260344796827E-10   1.762457382929718E-10    1.1363769611818801E-10
3.2E-5                    6.022978697331707E-11    -7.790988693011502E-11   1.7626776460069797E-10   2.164770539759213E-10    -9.549291582917962E-11   -7.019661001795897E-10   -7.240681630833567E-11   -4.9535316578182816E-11  3.2327718129159904E-10   1.6490017828621435E-10   1.1316709954132224E-10
3.25E-5                   -4.805671528331724E-10   -6.413712391950139E-10   -3.3467386178641076E-10  -2.9977309639131983E-10  3.9892898219125773E-10   -5.648815887751087E-10   -8.049572127867552E-11   -6.008583533423795E-11   2.8003438894598033E-10   1.4198356438147205E-10   1.0815570582629632E-10
3.2999999999999996E-5     -1.1270974542280268E-9   -1.301064366384059E-9    -9.518597564023763E-10   -9.233709977054233E-10   9.955827057252448E-10    -3.707956243008715E-10   -8.710499469638932E-11   -6.91274014158948E-11    2.1501733562237513E-10   1.0888637750312397E-10   9.734846607243084E-11
3.35E-5                   -1.8703823925239464E-9   -2.0489630882916427E-9   -1.674462067645254E-9    -1.6505556285274273E-9   1.688125319163065E-9     -1.156889629822404E-10   -9.026618367190814E-11   -7.625458198103158E-11   1.2470441216162567E-10   6.67324444617821E-11     7.936150989876249E-11
3.4E-5                    -2.693885533715372E-9    -2.873236983833084E-9    -2.4935818102652135E-9   -2.4718004323816016E-9   2.4585265207769972E-9    2.0307471587482603E-10   -8.938822002092627E-11   -8.182691783131429E-11   8.121804779884573E-12    1.4289636527540554E-11   5.322544324167174E-11
3.45E-5                   -3.5775736426375706E-9   -3.755131596048386E-9    -3.390773853774864E-9    -3.3720007795466476E-9   3.2855110807285323E-9    5.875200362583456E-10    -8.471218814478398E-11   -8.573369601337923E-11   -1.3286809409005668E-10  -5.1185220933182373E-11  1.868781249797096E-11
3.5E-5                    -4.498425388297187E-9    -4.667378147624853E-9    -4.339035098242261E-9    -4.329821207331594E-9    4.150387411125872E-9     1.0374964830692533E-9    -7.556897828443592E-11   -8.655489233277341E-11   -2.961603515521795E-10   -1.3093077737609414E-10  -2.3993138986799482E-11
3.5499999999999996E-5     -5.4274803730900566E-9   -5.576712158266861E-9    -5.307005980893873E-9    -5.316731985702302E-9    5.030987324133969E-9     1.5482190776579569E-9    -5.967224490270717E-11   -8.19143096748199E-11    -4.814732537603022E-10   -2.2286261769990613E-10  -7.442422442246764E-11
3.6E-5                    -6.327355102103601E-9    -6.447188213830666E-9    -6.26256411889452E-9     -6.2970835925947634E-9   5.892561041522047E-9     2.1088391761806846E-9    -3.448248422055438E-11   -6.963934709830166E-11   -6.889270255424731E-10   -3.228785483140247E-10   -1.3224935522433793E-10
3.65E-5                   -7.153375838506262E-9    -7.239224910338058E-9    -7.170672724892057E-9    -7.229232041589033E-9    6.689200624055456E-9     2.702258941584533E-9     8.332255178275119E-13    -4.8727293700234274E-11  -9.156834989941895E-10   -4.2747778050821526E-10  -1.970808436288077E-10
3.7E-5                    -7.857221484430317E-9    -7.905567621816734E-9    -7.987808928446247E-9    -8.066218075842335E-9    7.3748155571671865E-9    3.306087312003681E-9     4.5019748805747335E-11   -1.947849044646001E-11   -1.1544913347795686E-9   -5.345292211832415E-10   -2.682175188716234E-10
3.75E-5                   -8.389187202073035E-9    -8.39095956167137E-9     -8.660676388149404E-9    -8.755449641473136E-9    7.910018085243091E-9     3.89498249376837E-9      9.616278179220402E-11    1.7125117871765058E-11   -1.3953060932648498E-9   -6.415921617256136E-10   -3.4410007004237215E-10
3.7999999999999995E-5     -8.697538350511124E-9    -8.63845281350222E-9     -9.130935646950631E-9    -9.239172798448515E-9    8.256911078530665E-9     4.4434162442155665E-9    1.530472631073681E-10    6.025631653485948E-11    -1.6275700572444176E-9   -7.441868888154689E-10   -4.217446608885169E-10
3.85E-5                   -8.727930561773734E-9    -8.596622154426267E-9    -9.340244697766344E-9    -9.457415391443511E-9    8.369317001674522E-9     4.926731344861397E-9     2.1489703802084305E-10   1.0965568452572949E-10   -1.8406756015008604E-9   -8.360486366582268E-10   -4.967556025900545E-10
3.9E-5                    -8.426254795396616E-9    -8.220549078664727E-9    -9.232187839103784E-9    -9.352056563688301E-9    8.191398002150985E-9     5.3196509809352995E-9    2.802009617464075E-10    1.6525541374170681E-10   -2.0228509101453323E-9   -9.10586457411605E-10    -5.6414852602993E-10
3.95E-5                   -7.744006024275182E-9    -7.46778303705594E-9     -8.75342402642351E-9     -8.869239447663558E-9    7.667259453063663E-9     5.593696508410312E-9     3.465060996152637E-10    2.2629605438013221E-10   -2.1605122775715154E-9   -9.615140639960078E-10   -6.192896602863492E-10
3.9999999999999996E-5     -6.642436137424304E-9    -6.297572172931503E-9    -7.855933815851452E-9    -7.960044615805114E-9    6.7522385804176345E-9    5.7155012628271795E-9    4.115504415247625E-10    2.9077355116902454E-10   -2.2393298839791083E-9   -9.822644623272175E-10   -6.580073789682411E-10
4.0499999999999995E-5     -5.094043593184474E-9    -4.677814076303545E-9    -6.499260077167252E-9    -6.582178512349716E-9    5.4167725678679426E-9    5.647081670789143E-9     4.739284486459402E-10    3.557979889757562E-10    -2.2462398323788074E-9   -9.655718147493423E-10   -6.758925444539656E-10
4.1E-5                    -3.0837243513278332E-9   -2.594295464309985E-9    -4.652828581631403E-9    -4.704231021642815E-9    3.6432869499190624E-9    5.348655180402822E-9     5.317617099993359E-10    4.1847603366966704E-10   -2.1705960100918284E-9   -9.041914625412856E-10   -6.678157599358549E-10
4.15E-5                   -6.118907088501924E-10   -5.4020605116731494E-11  -2.3002095320270272E-9   -2.310950256022926E-9    1.423902441775933E-9     4.7841215364035635E-9    5.805504145033951E-10    4.76340210401593E-10     -2.0035445824994267E-9   -7.923200260526217E-10   -6.283872379726278E-10
4.2E-5                    2.3014745836583407E-9    2.9175681838646226E-9    5.555857431346665E-10    5.92797090221531E-10     -1.235157134917139E-9    3.927283516863805E-9     6.129888611926154E-10    5.268757355628695E-10    -1.7366611291222933E-9   -6.268377112624703E-10   -5.52874305775787E-10
4.2499999999999996E-5     5.614464218916346E-9     6.278046130425229E-9     3.8893785039401E-9       3.980117124801162E-9     -4.3055972740978736E-9   2.765071840408767E-9     6.215579441621001E-10    5.667058267796072E-10    -1.3618819212144946E-9   -4.07847452799233E-10    -4.376711654341867E-10
4.2999999999999995E-5     9.262941509341188E-9     9.964036826567861E-9     7.65423138185807E-9      7.801463973087363E-9     -7.734201857513294E-9    1.2961538309233979E-9    6.013148595884851E-10    5.913283313834248E-10    -8.734959805751064E-10   -1.3827391368079199E-10  -2.803354997792142E-10
4.35E-5                   1.3160273972717654E-8    1.3886676839195983E-8    1.178148173623921E-8     1.1984161465532398E-8    -1.1447355087474603E-8   -4.718726318266803E-10   5.498575707855793E-10    5.956915042551865E-10    -2.707121116704348E-10   1.7719846447080312E-10   -7.999768469955339E-11
4.4E-5                    1.7196397993974874E-8    1.7932534185064814E-8    1.617860113256435E-8     1.643157187741611E-8     -1.5355015823115075E-8   -2.5222032011818505E-9   4.648317680142407E-10    5.750881145286033E-10    4.4121203464257705E-10   5.328011413966774E-10    1.616955600586449E-10
4.45E-5                   2.1238260186884887E-8    2.1968396541553826E-8    2.0727231231213722E-8    2.102252810609156E-8     -1.9348126614824906E-8   -4.825373203166609E-9    3.4245362425611483E-10   5.255866369001653E-10    1.2514809933387222E-9    9.210980803745328E-10    4.400603386639807E-10
4.4999999999999996E-5     2.5133534767761773E-8    2.5844480176063892E-8    2.528375060507308E-8     2.5612030830426017E-8    -2.3294699057055042E-8   -7.336703715984869E-9    1.7930355277441768E-10   4.4369501469127024E-10   2.1444456720559855E-9    1.3316570660111133E-9    7.479434125225835E-10
4.5499999999999995E-5     2.871683152556463E-8     2.9395813367947106E-8    2.9682325004777284E-8    3.0033520561789926E-8    -2.7042288458312598E-8   -9.997017253891193E-9    -2.4521909072347653E-11  3.2581025572169294E-10   3.0995083166099E-9       1.7503876358136462E-9    1.0765411332836535E-9
4.6E-5                    3.181599735213651E-8     3.244614703149505E-8     3.3739867260704046E-8    3.410256463415518E-8     -3.042552338146584E-8    -1.273414766092688E-8    -2.646723722166644E-10   1.6844979784827432E-10   4.090801558692271E-9     2.160212720703536E-9     1.4151808372281464E-9
4.65E-5                   3.425685834832206E-8     3.4815543525296484E-8    3.7262143221856003E-8    3.7621943167254626E-8    -3.327255763775078E-8    -1.546193924119128E-8    -5.351101982659495E-10   -3.040390893910515E-11   5.087486906141191E-9     2.542464942014395E-9     1.7503105682327478E-9
4.7E-5                    3.5866801679956544E-8    3.632839519709432E-8     4.004933533132426E-8     4.038779369166421E-8     -3.5409474549848965E-8   -1.807821322144026E-8    -8.308344108514208E-10   -2.698185847912873E-10   6.054678290159207E-9     2.878068837107995E-9     2.0653729366553197E-9
4.7499999999999996E-5     3.647980103601318E-8     3.682023594756846E-8     4.190095110406196E-8     4.21961343085158E-8      -3.666588335875581E-8    -2.0467011796417664E-8   -1.1474393478012016E-9   -5.456193785953044E-10   6.954548559569319E-9     3.1481013757768842E-9    2.3423650880836846E-9
4.8E-5                    3.59456162960865E-8      3.614515900737209E-8     4.2622758829166256E-8    4.2850093791653956E-8    -3.688263726546049E-8    -2.250696167043533E-8    -1.4779593184643642E-9   -8.513199167683078E-10   7.747384681043739E-9     3.333897293539203E-9     2.5637683718914396E-9
4.85E-5                   3.414214456549046E-8     3.418458886317725E-8     4.203674437201656E-8     4.2169004460053524E-8    -3.59199243607932E-8     -2.4080201890777887E-8   -1.810455408509473E-9    -1.1789027546669859E-9   8.392476259606084E-9     3.417200681071412E-9     2.7131107215239515E-9