% Model:              Untitled.mph
% Version:            COMSOL 6.0.0.405
% Date:               Jul 16 2025, 21:00
% Dimension:          1
% Nodes:              401
% Expressions:        11
% Description:        Point graph
% Time (s)                Displacement field, Y component Displacement field, Y component Displacement field, Y component Displacement field, Y component Displacement field, Y component Displacement field, Y component Displacement field, Y component Displacement field, Y component Displacement field, Y component Displacement field, Y component Displacement field, Y component
0                         5.785817118737789E-33    1.8481909442235665E-31   4.505707188047038E-32    3.078242410917751E-32    1.0747020759901972E-32   -1.3345939352942115E-32  -1.8702826543622958E-34  2.2001586941802505E-35   1.0147039932784243E-35   -4.068232336644527E-32   -1.5191849726240588E-32
5.0E-7                    -5.968265095540482E-25   -8.078001571216275E-24   -7.55360407883277E-24    -4.28968789017094E-24    -4.659322284716982E-24   4.9339630063638236E-24   -2.5581238765599661E-26  -2.7808225325478105E-27  -1.3970369464541101E-27  5.898039113714978E-24    7.537984913399735E-25
1.0E-6                    -1.6753183831584116E-24  -1.0577516893266515E-22  1.4977694378494224E-23   4.98901595938468E-24     8.18910831289978E-25     -1.832346217827903E-23   5.379853634310172E-25    8.967130675592967E-28    7.32103981372125E-28     -2.6310235587218596E-24  1.468734671686991E-23
1.5E-6                    1.1555493509486886E-23   1.9845025873666324E-22   -9.19757990326752E-25    -4.2184989949328076E-24  -7.181687888487267E-23   -1.1084124664698247E-22  -1.7406206251603092E-24  5.833611998225357E-27    7.976207092117327E-27    -4.092357626390659E-23   -8.148304236077625E-23
2.0E-6                    -1.6606570190406187E-23  5.9782858653173875E-22   -8.257261393431784E-23   4.011793181937387E-23    -1.381154841492599E-22   -7.619358023484372E-23   -4.540771075584213E-25   -1.191358149166388E-26   -4.2294783147082956E-26  2.8459503250339713E-22   2.6642123546550656E-22
2.4999999999999998E-6     -3.3376668346920693E-23  1.4077696838353406E-21   6.499360495908881E-23    -4.2443258859367606E-23  6.628667815159587E-22    1.3670616462076544E-21   5.231935453018066E-24    1.5368242785802931E-25   1.2280529818900943E-25   -1.1416088359745785E-21  -6.725128902418815E-22
3.0E-6                    3.4825840634517545E-24   -1.9852024531188237E-20  -4.989893706040667E-22   -1.2191007168027258E-22  1.415462434199554E-21    1.9097556154304213E-21   2.0389678492092E-23      -5.025834637745511E-25   -2.208658286545347E-25   1.1240399352160627E-21   3.246221839448551E-22
3.5E-6                    6.902397577036241E-22    2.7291833094855146E-20   6.6706354677295676E-21   -3.538254639825903E-24   1.301231784653385E-21    -5.688843325568628E-21   2.5315223297854398E-23   -1.2710207989457605E-24  1.25520456727138E-25     4.979956581547462E-21    4.679000284160436E-21
4.0E-6                    -1.1495291904108932E-21  6.946386161962332E-20    -1.2486044541501985E-20  -1.7142498397698986E-21  -9.134564413760232E-21   -2.0109677488809557E-20  -4.098881773818353E-22   4.064466487392006E-24    6.435133639072995E-25    -5.266733364869462E-21   -7.53698792902432E-21
4.5E-6                    -3.1119699275212865E-21  -1.1254836694653843E-19  -3.948976712922959E-20   7.891624726630113E-21    -2.4850313262772566E-20  -5.1874270950993E-21     -4.765381838185669E-22   1.9057665327941372E-23   -1.715998115233196E-24   -2.279369316833647E-20   -2.558032976112918E-20
4.9999999999999996E-6     6.299219188568886E-21    -3.4270029869552585E-20  1.350131231575713E-19    2.8096240532807297E-20   4.823200636639775E-20    1.135889828659871E-19    3.612545314619893E-21    -3.1949139910952095E-23  3.5299903282717116E-25   1.2882047520360178E-20   2.875114204475109E-20
5.5E-6                    1.5190821345061475E-20   -3.2027041152751205E-19  2.2296009760381444E-19   -3.3134822092064126E-20  1.302412921064944E-19    1.5278654635284003E-19   6.4994973733329265E-21   -1.746907956762812E-22   2.5920671947634725E-24   7.364910987117873E-20    1.620348484162616E-19
6.0E-6                    -6.658922433752862E-21   -4.417335914293904E-19   -6.429434175835757E-19   -1.0426000044426068E-19  -3.85899837187515E-19    -2.0414540402915451E-19  -1.791137894531707E-20   1.812940258791008E-22    -1.1302238584706972E-24  -1.738101725311016E-19   2.4241520163530277E-20
6.5E-6                    -1.0269001848152173E-19  5.721215210168502E-18    -8.541661079385716E-19   4.059272879865011E-19    -6.972941711375409E-19   -6.992468904767406E-20   -5.756894787877727E-20   1.2226183606445256E-21   2.122684347036775E-23    -1.373728422411006E-19   -8.736349913248937E-19
7.0E-6                    -4.858333671809408E-20   7.74472664397034E-18     3.681009098609388E-18    1.398106739403122E-18    2.8102095275619255E-18   7.82785233469566E-19     3.125462084890249E-20    -3.9499570956152003E-22  -1.527581926414064E-23   1.6799658775460883E-18   -1.1717495719671053E-18
7.499999999999999E-6      7.416913954616755E-19    -2.2435056743076693E-17  7.179093153095506E-18    7.235728742028734E-19    5.341062504557476E-18    -2.3578987050474664E-18  3.202707718005701E-19    -6.140074071944937E-21   -2.3683548289322984E-22  1.0993215844436602E-18   3.1221165198606566E-18
8.0E-6                    1.0010945492169556E-18   -3.516776640890633E-17   -3.206820001042978E-18   -7.569921544535552E-19   -1.1535907232290099E-17  -8.188613262006578E-18   2.4101717525161903E-19   -5.632212909792253E-22   1.1473921194533586E-22   -9.684615356774572E-18   8.820811973891712E-18
8.5E-6                    -2.0442533985077805E-18  1.1047814569636518E-16   2.9943397831001592E-18   1.1927697100584227E-17   -3.0334002130459685E-17  4.930350810148266E-18    -9.91476033770097E-19    2.6675826113082345E-20   1.724906888702416E-21    -1.5081025918362062E-17  -4.976108923969939E-18
9.0E-6                    -1.6430480694610515E-18  3.629046557621019E-16    9.5564866176765E-17      6.667106701416674E-17    2.7479512697815232E-17   4.2144397180278714E-17   -1.90563803333638E-18    1.9583529140586707E-20   4.966136464182116E-22    2.494905558663835E-17    -4.127368084150733E-17
9.499999999999999E-6      1.91494874531299E-17     2.9068697938461616E-16   2.5904967234465613E-16   1.71183465157583E-16     1.461857824513567E-16    4.881268911258361E-17    1.2196327979692389E-18   -6.89646174961004E-20    -7.661658374236055E-21   8.063304223163541E-17    -2.2702194985867403E-17
9.999999999999999E-6      5.3181384952829494E-17   -1.4014160539078791E-16  4.797794376716104E-16    3.2285098142939933E-16   1.1765207695581887E-16   -1.6523370331236286E-17  6.494934930221212E-18    -5.808770355673746E-20   -6.690751961735753E-21   -1.7099235549206172E-17  1.1690683450356514E-16
1.05E-5                   7.199751527117487E-17    9.164898877979313E-16    1.21732853123125E-15     7.893017820504824E-16    -9.790766934269528E-17   -8.161883223433442E-17   3.491101235372571E-18    2.456955725228421E-19    2.729892258880094E-20    -3.2100022560865066E-16  1.73868604105463E-16
1.1E-5                    1.6815771371361285E-16   6.3414069217283765E-15   3.6846014339348695E-15   2.6051179034901896E-15   -3.740849836113878E-17   8.846818487621068E-17    -6.265702822838567E-18   3.8318565892157224E-19   6.257543663662536E-20    -3.654255476518159E-16   -2.0435780050628832E-16
1.15E-5                   7.061113185281934E-16    1.5576988512555186E-14   9.992056169588528E-15    7.592829775136418E-15    8.615867585597866E-16    1.0568181005466416E-15   6.120352364912288E-20    -7.463523324908131E-20   1.2213293523400619E-20   3.137918925425692E-16    -7.392263958060684E-16
1.2E-5                    2.246229814126244E-15    2.593011853769009E-14    2.4445104766843776E-14   1.8276946566790353E-14   2.830390243038271E-15    3.3508207288373257E-15   1.1480137657916642E-17   6.2598771667124545E-19   -1.5231875600470017E-19  6.706291883019727E-16    -3.5011940424866567E-16
1.2499999999999999E-5     5.63274178003369E-15     4.7647870631652554E-14   5.6643358120316415E-14   4.0965951524900945E-14   6.0257460502498374E-15   6.006240161127207E-15    -3.1399369152636066E-17  4.803887328401419E-18    -2.2742427012928855E-19  -1.4375666575028318E-15  1.1224072804554776E-15
1.3E-5                    1.3378242590290944E-14   1.117452614164467E-13    1.2825408972967947E-13   9.440288614349221E-14    1.1467091271739385E-14   7.762689016672891E-15    -3.416659331781504E-17   9.163145676598957E-18    5.28336627290011E-19     -5.663177493345995E-15   1.2773332605029272E-15
1.35E-5                   3.2977563063262914E-14   2.5288961758057985E-13   2.8911453351541445E-13   2.2117842464144936E-13   2.4728524493494453E-14   1.4793313875565376E-14   3.627415167387895E-16    9.56540747680707E-18     2.854368458570788E-18    -8.971663562222698E-15   -2.845175049485213E-15
1.4E-5                    8.170849464145252E-14    5.172496496815907E-13    6.410613314203021E-13    5.006073495925305E-13    6.057415932024749E-14    4.5884128268143955E-14   1.1323974063596314E-15   2.5837291070833944E-17   4.466353330847366E-18    -1.3691785699391261E-14  -1.0222061175681376E-14
1.45E-5                   1.9333224206114867E-13   1.0206971663957255E-12   1.352134604493168E-12    1.0680063172841547E-12   1.3817938044163913E-13   1.2268225646599252E-13   1.1280533002661187E-15   1.115021137276613E-16    2.737905688401497E-19    -3.249219332854122E-14   -1.508086264981552E-14
1.4999999999999999E-5     4.308152145960488E-13    1.920564291829751E-12    2.664295005358124E-12    2.1434077055577093E-12   2.795401969195958E-13    2.62036682970306E-13     -2.2053501796182902E-16  3.0823416500681864E-16   -2.3872739133676813E-18  -8.029563358906842E-14   -1.4899167904157622E-14
1.55E-5                   9.13461644727177E-13     3.2658712939050493E-12   4.961342757212185E-12    4.085950946209241E-12    5.57535063436841E-13     5.031489148559968E-13    1.0382062478702959E-15   6.217536389791729E-16    3.0442557965880934E-17   -1.7228074276085415E-13  -2.516257770040366E-14
1.6E-5                    1.8626294218012257E-12   5.1362000375993985E-12   8.917476805590108E-12    7.499495031617754E-12    1.1656699724314784E-12   9.538762206665153E-13    1.2714299644358173E-14   1.2255568130823597E-15   1.2349642481664414E-16   -3.456173793608446E-13   -8.587008316067256E-14
1.6499999999999998E-5     3.646755114626213E-12    8.276989438675547E-12    1.5443181721165777E-11   1.3249589138825748E-11   2.356284930008726E-12    1.8039430928422741E-12   3.666049755684222E-14    2.93744026514651E-15     2.359529365333978E-16    -6.772485935698631E-13   -2.3615111717629136E-13
1.7E-5                    6.7852240228530745E-12   1.4234307500240964E-11   2.4972729536128823E-11   2.197318446789134E-11    4.254513678169165E-12    3.309685946657311E-12    6.354174409115707E-14    7.53204203993543E-15     3.570883705099577E-16    -1.281898223929454E-12   -4.704738029918423E-13
1.75E-5                   1.1895321951565386E-11   2.387965251993058E-11    3.639225184768227E-11    3.299626207502019E-11    6.928531933491725E-12    5.777957611152821E-12    9.494999100052552E-14    1.7538808628007573E-14   7.961336932401397E-16    -2.341675830191365E-12   -7.644244625493545E-13
1.8E-5                    1.9587190554468002E-11   3.564414679438394E-11    4.7119121076714524E-11   4.380753078841696E-11    1.0860343376111416E-11   9.455307210846874E-12    1.826336014210624E-13    3.6880385928280575E-14   2.304304257690967E-15    -4.154830377019298E-12   -1.2244517112332768E-12
1.85E-5                   3.0220922037625676E-11   4.6374356267310806E-11   5.5140006344105E-11      5.157172475276083E-11    1.7002999251881972E-11   1.4221353609855165E-11   4.2898518250187573E-13   7.531467378440192E-14    5.809795927767071E-15    -7.042287436097186E-12   -2.2011443586087285E-12
1.8999999999999998E-5     4.3409157249251316E-11   5.454907059061756E-11    6.072167909376248E-11    5.571045149960125E-11    2.560787610569494E-11    1.9312645078511338E-11   9.208980214133932E-13    1.5651207114962093E-13   1.2574085462566898E-14   -1.1084455678914677E-11  -4.106671664307841E-12
1.95E-5                   5.753367183606951E-11    6.138663140646003E-11    6.469402171582458E-11    5.792923710455683E-11    3.48940098058095E-11     2.3519485882851105E-11   1.6779630597182498E-12   3.2263769662013685E-13   2.5892291141067696E-14   -1.5987147765212776E-11  -7.0193484765078E-12
1.9999999999999998E-5     6.997799741827238E-11    6.759140865476589E-11    6.507973478871515E-11    5.850061657774099E-11    4.178612012846937E-11    2.5868303797724397E-11   2.73464732188862E-12     6.302915296466815E-13    5.385149813254295E-14    -2.121724770009462E-11   -1.0564892754858212E-11
2.05E-5                   7.820305330589251E-11    7.017680710187793E-11    5.785022237882868E-11    5.368098293957721E-11    4.455817989209143E-11    2.614755391145119E-11    4.316205670772224E-12    1.1508822828486335E-12   1.1179920657624728E-13   -2.6012087846345097E-11  -1.4283131668486057E-11
2.1E-5                    8.050515899394101E-11    6.446718958395668E-11    4.217272985308108E-11    3.932060351101725E-11    4.4047217492060874E-11   2.4642922535648417E-11   6.8561652874589935E-12   1.9980850644932973E-12   2.2567694590815328E-13   -2.909591585261149E-11   -1.794576821320014E-11
2.1499999999999997E-5     7.549046548076018E-11    4.9001484729402063E-11   2.216979930430523E-11    1.691261164045355E-11    4.1521913051559475E-11   2.1209049033712037E-11   1.0654473386126773E-11   3.368819464178335E-12    4.3835489273986696E-13   -2.8856102662164232E-11  -2.128451092668378E-11
2.2E-5                    6.139548506985081E-11    2.6642168178341454E-11   8.568888527442296E-13    -7.291902690857355E-12   3.606084505408837E-11    1.4683491304589638E-11   1.5341368057245222E-11   5.5219207122862E-12      8.155827239196364E-13    -2.4450076951121067E-11  -2.3524756512393746E-11
2.2499999999999998E-5     3.6965756764101256E-11   3.417571802044634E-13    -2.5661052199146597E-11  -3.100332630509106E-11   2.51344018625616E-11     3.8174055885996016E-12   1.9629534381113254E-11   8.621028476759835E-12    1.4472055017201613E-12   -1.6625141728937746E-11  -2.3545248699230886E-11
2.3E-5                    2.8389364521845085E-12   -3.118547531739369E-11   -6.477895747808202E-11   -6.10339840527359E-11    7.363556391912249E-12    -1.0573867596297163E-11  2.1737807626933116E-11   1.2488311631483656E-11   2.4538317744726425E-12   -6.839232766647618E-12   -2.0608892662576386E-11
2.35E-5                   -3.9313033156598277E-11  -7.314106275230868E-11   -1.195728683167072E-10   -1.064986401431881E-10   -1.653236499170282E-11   -2.4978301846906378E-11  2.0388627065908804E-11   1.6459035256565098E-11   4.009391613344131E-12    4.332031595311067E-12    -1.479852027531108E-11
2.4E-5                    -8.930435697267365E-11   -1.3030038563533133E-10  -1.8762249133408433E-10  -1.6802349265930511E-10  -4.537958705066769E-11   -3.645758444341116E-11   1.5753860236632662E-11   1.951496743869841E-11    6.335353891847464E-12    1.726272030617152E-11    -6.7917653126277824E-12
2.45E-5                   -1.486087425343221E-10   -2.0282036904332767E-10  -2.661470616745413E-10   -2.3721045790062867E-10  -7.87855009118482E-11    -4.7107803724630383E-11  9.515364242994705E-12    2.0652498046951462E-11   9.57069917154023E-12     3.20434690070769E-11     2.5977474409734025E-12
2.4999999999999998E-5     -2.1734862999221323E-10  -2.860593452137963E-10   -3.5382499882099157E-10  -3.068994594652047E-10   -1.1646655601790088E-10  -6.337585473607377E-11   3.651156750394072E-12    1.920542785390948E-11    1.3513703979894541E-11   4.843655260376825E-11    1.2912345053756168E-11
2.55E-5                   -2.9274262528069984E-10  -3.7461764666312846E-10  -4.4728039720469626E-10  -3.783904848919998E-10   -1.5764751736604097E-10  -8.930765106665272E-11   -1.332947936734809E-12   1.4890457233848452E-11   1.7448858542502933E-11   6.735184017202703E-11    2.4759391678092727E-11
2.6E-5                    -3.7180161636536226E-10  -4.659215111817005E-10   -5.399182937807884E-10   -4.568310745182517E-10   -2.0196625790277174E-10  -1.2172383505339414E-10  -7.1167869265144395E-12  7.695258634477206E-12    2.03261999258976E-11     9.099538625223342E-11    4.022760609146001E-11
2.65E-5                   -4.5408113066514675E-10  -5.587145358125336E-10   -6.261211516593923E-10   -5.419876607622028E-10   -2.501079941825457E-10   -1.5378226306175356E-10  -1.628051268870631E-11   -2.0604984445120055E-12  2.1257515554841263E-11   1.2039999058833265E-10   6.187127040709098E-11
2.7E-5                    -5.399009313615708E-10   -6.490196601144265E-10   -7.043439728645064E-10   -6.25908699679325E-10    -3.0226229507080623E-10  -1.818698588443775E-10   -3.0171038998188684E-11  -1.3512161844351282E-11  1.9933831881658228E-11   1.5327180804421427E-10   9.034226333399621E-11
2.7499999999999998E-5     -6.266505082630021E-10   -7.305963998345925E-10   -7.743014864630328E-10   -6.98184148285219E-10    -3.5596055673643995E-10  -2.0663554312350565E-10  -4.8216491098633546E-11  -2.5433862884019662E-11  1.6626219909340844E-11   1.8513228792031584E-10   1.227687516652604E-10
2.8E-5                    -7.085166384025576E-10   -7.999705517736612E-10   -8.321126469139836E-10   -7.509301037973519E-10   -4.065060708183622E-10   -2.2868973056647937E-10  -6.927558178256111E-11   -3.711922094366325E-11   1.1844413507529944E-11   2.1242493382074233E-10   1.5392097982768116E-10
2.8499999999999998E-5     -7.789405725210045E-10   -8.573704275160771E-10   -8.694618914168264E-10   -7.791663660538131E-10   -4.500109601999068E-10   -2.4687309389950633E-10  -9.289066053153611E-11   -4.91929558307389E-11    5.941479653664412E-12    2.3411127269328483E-10   1.7955338539632105E-10
2.9E-5                    -8.311269223210136E-10   -8.994414379668487E-10   -8.770437637490001E-10   -7.78950130349683E-10    -4.850989995214773E-10   -2.606579572504344E-10   -1.1847017379322332E-10  -6.316041032352745E-11   -1.2239159353997827E-12  2.5074212112438236E-10   1.9892141641375126E-10
2.95E-5                   -8.564703091038976E-10   -9.124060014963407E-10   -8.472832556870172E-10   -7.459074055991195E-10   -5.104849396352543E-10   -2.7074358924683494E-10  -1.4369285804551774E-10  -7.978452118103954E-11   -1.056842462389561E-11   2.626654934317275E-10    2.1413567525021256E-10
2.9999999999999997E-5     -8.451321817416502E-10   -8.760403606825867E-10   -7.726877668241063E-10   -6.740612085548658E-10   -5.210435533353649E-10   -2.7615586061468496E-10  -1.6510793133592799E-10  -9.803918655832383E-11   -2.3765630722408908E-11  2.688677239122757E-10    2.2718016014608713E-10
3.05E-5                   -7.894029416580036E-10   -7.755609689029931E-10   -6.428228085737079E-10   -5.55259456653956E-10    -5.074887546088498E-10   -2.7288072697008833E-10  -1.8092031530302034E-10  -1.1602825226781037E-10  -4.253737491169767E-11   2.6680617943197567E-10   2.3764418909194167E-10
3.1E-5                    -6.852500393215384E-10   -6.081714775302234E-10   -4.462078905645693E-10   -3.8082364494015476E-10  -4.607884884732159E-10   -2.559658184615039E-10   -1.9220645045673978E-10  -1.328747191340067E-10   -6.734854191858966E-11   2.5313385634507885E-10   2.429497576399628E-10
3.15E-5                   -5.294084935881561E-10   -3.7752549390825356E-10  -1.7671322398409567E-10  -1.4503889072027715E-10  -3.76992555263557E-10    -2.2137233892752475E-10  -2.0024972664570007E-10  -1.4911358476173045E-10  -9.642523653690374E-11   2.2468545708312517E-10   2.3973768399744874E-10
3.2E-5                    -3.1567403658162996E-10  -8.390626640925354E-11   1.6407500794074492E-10   1.5272383567043688E-10   -2.57657243043547E-10    -1.6625970727378078E-10  -2.031013798671712E-10   -1.6476198380243129E-10  -1.2621140511546058E-10  1.7876534373377222E-10   2.2425656401963307E-10
3.25E-5                   -3.565981430992805E-11   2.780996630385499E-10    5.721666208711771E-10    5.094880897932004E-10    -1.0538625402085934E-10  -9.017298986534331E-11   -1.9619809125562313E-10  -1.772892050251463E-10   -1.5334950116209954E-10  1.1286895233752827E-10   1.920448807529585E-10
3.2999999999999996E-5     3.1608398265736994E-10   7.131961373138362E-10    1.0459708525779503E-9    9.220031155404243E-10    8.130154792535526E-11    3.866767116899771E-12    -1.7671546850992193E-10  -1.8230497629991722E-10  -1.7667397567099312E-10  2.5094534809820716E-11   1.3893048690574862E-10
3.35E-5                   7.383017759209917E-10    1.2193489508431967E-9    1.583611050927428E-9     1.38776196264186E-9      3.0826297312588956E-10   1.1216804053511799E-10   -1.4595954773179375E-10  -1.7670446187102646E-10  -1.972249398600743E-10   -8.46025369040354E-11    6.339541392142265E-11
3.4E-5                    1.2247303068864296E-9    1.7884664217076347E-9    2.1781170022856284E-9    1.9016177811956515E-9    5.796396791206572E-10    2.348804781618997E-10    -1.0614527347892082E-10  -1.60701885897141E-10    -2.159953820500951E-10   -2.1393604743529944E-10  -3.237074516945157E-11
3.45E-5                   1.7677661774369907E-9    2.409914279769996E-9     2.8173017203998297E-9    2.4510390533391535E-9    8.908376986697876E-10    3.752737972259256E-10    -5.5195126800975684E-11  -1.360218558234738E-10   -2.3166466847693953E-10  -3.5943550033058114E-10  -1.4439522437977777E-10
3.5E-5                    2.3573632497216488E-9    3.070036967421497E-9     3.48430282658388E-9      3.0154889335194487E-9    1.2282044856052848E-9    5.337223782109403E-10    1.3692864698614255E-11   -1.0207194067582598E-10  -2.4089042819944844E-10  -5.177456903369045E-10   -2.6988695237482333E-10
3.5499999999999996E-5     2.975599172187121E-9     3.747807964948699E-9     4.153550437660891E-9     3.570793502998199E-9     1.5759167791083225E-9    7.046666450204273E-10    1.0623296659283071E-10   -5.466957153321113E-11   -2.408194014888459E-10   -6.855650615387455E-10   -4.0811419829808555E-10
3.6E-5                    3.5952029645804995E-9    4.412685906031457E-9     4.788101188249144E-9     4.092804605342477E-9     1.9222479143380764E-9    8.805185958596837E-10    2.2088067777836185E-10   1.0964606928756757E-11   -2.3058778202498447E-10  -8.588127166668757E-10   -5.586053655999408E-10
3.65E-5                   4.185778656679235E-9     5.028148911661959E-9     5.345800642581396E-9     4.555906867483192E-9     2.2588066085490743E-9    1.056231028709369E-9     3.489103217052068E-10    9.629211282210612E-11    -2.0967616567250613E-10  -1.0322009560608964E-9   -7.187630651505399E-10
3.7E-5                    4.719879430626372E-9     5.557561379168115E-9     5.7886385882517344E-9    4.929587685165347E-9     2.575047811310885E-9     1.2281450185513781E-9    4.80725051019243E-10     1.98752422341012E-10     -1.7511505183774216E-10  -1.198886412630601E-9    -8.830124507430602E-10
3.75E-5                   5.170418127584719E-9     5.966382142810332E-9     6.083844470843865E-9     5.178621997110609E-9     2.854616010220142E-9     1.3898040635090507E-9    6.11957406405374E-10     3.142102268788093E-10    -1.2136785991716574E-10  -1.349591239888095E-9    -1.043793189972863E-9
3.7999999999999995E-5     5.503329453025967E-9     6.219022682627901E-9     6.196695963410569E-9     5.266738924985308E-9     3.0764283687627614E-9    1.531086239074138E-9     7.434974313060832E-10    4.3911556220808813E-10   -4.359114324087697E-11   -1.4723445914456159E-9   -1.1930086739902703E-9
3.85E-5                   5.676518957515949E-9     6.274941219952137E-9     6.0860010565413635E-9    5.160006320969849E-9     3.2184726962018116E-9    1.6411221810645128E-9    8.760028883729217E-10    5.702548304276353E-10    5.915928361680528E-11    -1.5543473844337839E-9   -1.3222459531315627E-9
3.9E-5                    5.647267083294275E-9     6.089300059613237E-9     5.708712495885679E-9     4.828648624784212E-9     3.260742731480507E-9     1.7104492895221212E-9    1.004600197786425E-9     7.032017864995537E-10    1.8403380789873253E-10   -1.5849425029912328E-9   -1.4216328104152448E-9
3.95E-5                   5.37896410394771E-9      5.6179273413172334E-9    5.028494084309071E-9     4.247682661785816E-9     3.1850683618721324E-9    1.7304234510133725E-9    1.1184222895268037E-9    8.314842450189151E-10    3.27136349342975E-10     -1.5569011002323143E-9   -1.4791839871210455E-9
3.9999999999999996E-5     4.8407826134691005E-9    4.822313272396477E-9     4.019831824747009E-9     3.3958947710192345E-9    2.972904960050694E-9     1.6923520595364458E-9    1.2044169421122296E-9    9.471553995079016E-10    4.857840315380198E-10    -1.4651239719113984E-9   -1.482201177220687E-9
4.0499999999999995E-5     4.005134453138746E-9     3.672900960495984E-9     2.6665046902649673E-9    2.254933388788661E-9     2.605039566578195E-9     1.588286796235215E-9     1.2513552948212396E-9    1.0423094326614297E-9    6.585337481497117E-10    -1.3047723812704161E-9   -1.419726664751702E-9
4.1E-5                    2.850098146453961E-9     2.152302998120688E-9     9.603594671578844E-10    8.13233300806196E-10     2.0653237189248667E-9    1.4121749586507818E-9    1.2510720895356391E-9    1.110594284050438E-9     8.435101851946446E-10    -1.0708967945060803E-9   -1.2838311103137276E-9
4.15E-5                   1.365508868789193E-9     2.58604239481382E-10     -1.0952548641435308E-9   -9.251912082549009E-10   1.3451903903634353E-9    1.1599062495300959E-9    1.197315322043261E-9     1.1474209711389606E-9    1.0360262802642318E-9    -7.595180948596066E-10   -1.0694362034158603E-9
4.2E-5                    -4.433708615359898E-10   -1.9931558105246686E-9   -3.480002799193017E-9    -2.9351191091241953E-9   4.4463616896114043E-10   8.292398641641344E-10    1.0843538727742126E-9    1.1482194051224342E-9    1.2264486951160232E-9    -3.690589348220078E-10   -7.742746121488291E-10
4.2499999999999996E-5     -2.555524893267352E-9    -4.5710930320095355E-9   -6.1539894023214145E-9   -5.173798096560047E-9    -6.293501375514574E-10   4.2075749346215514E-10   9.066797576051709E-10    1.106178669662196E-9     1.4001398648586243E-9    9.845493472846767E-11    -3.995463100914584E-10
4.2999999999999995E-5     -4.933591203917708E-9    -7.425848938136986E-9    -9.058548188390754E-9    -7.588766728432378E-9    -1.8624869720470571E-9   -6.137361267139003E-11   6.595840613637607E-10    1.012115508771712E-9     1.5408740843499785E-9    6.365882261391565E-10    5.004706261063055E-11
4.35E-5                   -7.522628574168891E-9    -1.0489137756013584E-8   -1.2117318511532025E-8   -1.0119845062938635E-8   -3.2303994494367874E-9   -6.102368145533325E-10   3.399282729214139E-10    8.571855838208085E-10    1.6357810409857912E-9    1.2342283505196238E-9    5.675667001178736E-10
4.4E-5                    -1.025109610105366E-8    -1.3673703049014781E-8   -1.523653295926594E-8    -1.269379229118158E-8    -4.69739473548166E-9     -1.2173480491904048E-9   -5.2925569451205866E-11  6.35940826554615E-10     1.6774286823107514E-9    1.8756582836646317E-9    1.1448958254779476E-9
4.45E-5                   -1.3033595548685344E-8   -1.6875016654260738E-8   -1.830600379107394E-8    -1.5219661737791387E-8   -6.219041337219385E-9    -1.8722859005718708E-9   -5.15649310373099E-10    3.4684993894827706E-10   1.6613847053786925E-9    2.5406486691570587E-9    1.7718095581299918E-9
4.4999999999999996E-5     -1.5771868874165002E-8   -1.9972651385531808E-8   -2.120129159316571E-8    -1.7591070841914285E-8   -7.745534598436385E-9    -2.561469259558556E-9    -1.0392788597667519E-9   -9.467911279721711E-12   1.5825101052725185E-9    3.2048964002650788E-9    2.433392211260486E-9
4.5499999999999995E-5     -1.8354088094182042E-8   -2.2830626955327947E-8   -2.3785907142889745E-8   -1.969289019758008E-8    -9.222184848136537E-9    -3.267767586360574E-9    -1.6087243744373695E-9   -4.313093533659833E-10   1.4336720857880045E-9    3.8413281340842855E-9    3.107929942224182E-9
4.6E-5                    -2.0656396864883052E-8   -2.5298804405963166E-8   -2.5913305495660963E-8   -2.1406693611266193E-8   -1.0587836319262495E-8   -3.970646597522439E-9    -2.20451047059297E-9     -9.143412083347831E-10   1.2065355162348506E-9    4.421703467106589E-9     3.766953569636014E-9
4.65E-5                   -2.254798474810356E-8    -2.7217702294934077E-8   -2.743049995525729E-8    -2.261387900120397E-8    -1.1774929770817272E-8   -4.646304965765426E-9    -2.805694882393533E-9    -1.4489262757738793E-9   8.921748397712478E-10    4.9173116753007835E-9    4.377263976684791E-9
4.7E-5                    -2.3896572525820674E-8   -2.8427052275767855E-8   -2.8185716914062463E-8   -2.3199084972929957E-8   -1.2712787203994162E-8   -5.269299019494054E-9    -3.391165531782733E-9    -2.0192016337516548E-9   4.817550915606143E-10    5.2988433601954036E-9    4.903519078810936E-9
4.7499999999999996E-5     -2.457251129488709E-8    -2.8775979588386357E-8   -2.8039989647371077E-8   -2.305493784979961E-8    -1.3332333757199095E-8   -5.816035112480882E-9    -3.937629468797806E-9    -2.6046478956271397E-9   -3.0798167445144114E-11  5.537010305700044E-9     5.310246992430989E-9
4.8E-5                    -2.4453883332188694E-8   -2.813145474373887E-8    -2.687776844533393E-8    -2.2087239593465612E-8   -1.3570149338917306E-8   -6.2666393255545315E-9   -4.416164858586012E-9    -3.182167525022053E-9    -6.447965461569004E-10   5.604838438706065E-9     5.563284941567452E-9
4.85E-5                   -2.343468689932393E-8    -2.638317397130185E-8    -2.461050235334007E-8    -2.0220973741225536E-8   -1.337137415475076E-8    -6.602631412888163E-9    -4.791575316024681E-9    -3.726717312319838E-9    -1.3507797434176057E-9   5.480659523379377E-9     5.63125590141856E-9