% Model:              Untitled.mph
% Version:            COMSOL 6.0.0.405
% Date:               Jul 15 2025, 14:58
% Dimension:          1
% Nodes:              401
% Expressions:        11
% Description:        Point graph
% Time (s)                Displacement field, Y component Displacement field, Y component Displacement field, Y component Displacement field, Y component Displacement field, Y component Displacement field, Y component Displacement field, Y component Displacement field, Y component Displacement field, Y component Displacement field, Y component Displacement field, Y component
0                         -8.936854256899439E-36   -2.764256318751029E-35   3.684248591839545E-35    1.4373467092346455E-34   2.7117625857943974E-31   2.7099272350908528E-33   -1.457043927043951E-33   -2.8757325048085103E-33  -8.662363878852198E-33   -1.794216736191679E-31   -1.5026337711327616E-31
5.0E-7                    6.218809692969618E-28    4.373520228702751E-27    -3.852958350731615E-27   -1.8306903002036306E-26  -1.68552185157305E-23    4.206442614164109E-24    2.0032855752494145E-25   3.650070647767759E-25    -8.800305823378677E-25   2.3645350618243803E-23   1.0311474517900037E-23
1.0E-6                    6.49449861746335E-27     -7.800124441241122E-27   -2.6853127492159837E-27  1.9307463213470294E-26   -8.672100760441226E-23   -3.627382937129125E-23   -3.207639870825159E-25   -4.943008772269081E-25   1.4203139092270545E-24   -4.2091853080049366E-23  -1.7808571683055702E-23
1.5E-6                    -3.6764367478495276E-26  -5.303178823264894E-28   4.572066649782942E-26    -6.747882930064819E-27   -1.8169528441167804E-22  5.138718962387817E-23    5.032658080799538E-25    2.8409635448345416E-24   1.7494712538424484E-23   1.5984325040257014E-22   1.625929900911626E-22
2.0E-6                    6.75244592283691E-26     8.709552589558223E-26    -2.047334710268697E-25   -6.770814668729084E-26   3.0122442280564894E-21   3.2279098295429322E-22   -4.98386245416451E-25    5.8997813248567594E-24   2.9107650554675934E-23   -2.4896318138921392E-23  1.67707474969458E-23
2.4999999999999998E-6     1.0556312346607229E-26   -3.0060860310120684E-25  2.896145276823356E-25    5.8275396493926245E-25   3.692157217169552E-21    8.695191449653044E-22    -9.410592579426861E-24   2.7864679798487617E-24   9.346930328087674E-23    -2.141460111979356E-21   -2.08578048872612E-21
3.0E-6                    -6.632619523551798E-26   3.730056290644012E-25    -9.9747925182523E-25     -3.3189550265447025E-24  -2.6929880733390645E-20  -9.655290261336748E-21   1.7226025535496663E-23   -1.8404565880500814E-23  6.051400008058408E-22    -1.4510205776888992E-21  3.7610129822936984E-21
3.5E-6                    -1.5075636544549136E-25  -1.8303365033268771E-25  2.109099332462131E-24    7.08455332451703E-24     -1.2260103268422518E-20  6.3141409860252105E-21   1.6718037533598844E-23   1.9671013714334563E-22   2.9731898478733236E-22   1.5270378136382063E-20   1.152670864185935E-21
4.0E-6                    -1.0837313679990608E-24  -1.9159296948097602E-25  1.6382168466853478E-23   1.96424406688197E-23     7.856951579266481E-20    8.227639386151867E-20    -2.616508135467685E-22   8.371632679212547E-22    -1.0474410898172032E-21  2.833040263935226E-20    -3.5638356660268E-20
4.5E-6                    9.208357945545675E-25    4.7152314065913925E-24   -1.2463944526944063E-23  -7.795284536806028E-23   8.643133292366042E-20    -6.35726901544189E-20    1.9223985506508087E-23   -4.462507241265229E-22   4.478917023336158E-21    -6.986192139862778E-20   4.352756011006053E-21
4.9999999999999996E-6     1.7277181909037766E-23   -8.386905428119197E-24   -1.5788928910167427E-22  -9.203011342863148E-23   6.312549815913011E-20    -5.442076621000417E-19   2.260260740419917E-21    -9.013143282663724E-23   1.0509650755838675E-20   -2.6000254776044046E-19  2.0802124782285698E-19
5.5E-6                    -1.6372768935406632E-24  -3.2061354004487355E-23  -1.4798662891761303E-23  5.347452432094356E-22    -4.898717014348869E-19   2.760188450935045E-19    -3.6339655201667902E-22  1.564941701963744E-20    -1.1301680017763752E-20  -1.5005363374028583E-19  4.050261312185912E-21
6.0E-6                    -1.6277069029454853E-22  5.413099040740991E-23    1.1523541599070725E-21   6.452590035631821E-22    -1.9368785833278275E-18  3.639325469492966E-18    -1.0917107485094974E-20  2.79373352268738E-20     4.622153153644515E-22    7.900670633001907E-19    -1.3813925801027721E-18
6.5E-6                    -3.208534078913562E-23   1.8856796795106547E-22   9.501213258753077E-22    -2.070255791880122E-21   1.744360791897033E-18    1.4384881906346295E-18   8.508017079865111E-21    -1.8455994973614437E-20  3.089028944439883E-20    9.154850335515952E-19    -2.4652661197672854E-18
7.0E-6                    1.0757125513499256E-21   -2.3091184137021312E-22  -5.2099104323197576E-21  -3.1227312929778447E-21  1.5785054257756315E-17   -1.5953393574045883E-17  6.592787568081838E-20    -4.5818692148865496E-20  -5.329994501911343E-19   -5.2647653293264955E-18  1.5820259702003798E-19
7.499999999999999E-6      6.048273013517225E-22    -9.371795381831389E-22   -6.790496488929075E-21   7.326257021922856E-21    1.019997264167587E-17    -1.4291507665794795E-17  2.952406407065069E-20    1.2359486288681786E-19   -1.3302377279669396E-18  -1.6135010594274996E-17  5.3985406549663766E-18
8.0E-6                    -5.3908602118480406E-21  4.327802031476436E-22    1.9997949800289263E-20   1.813407492345596E-20    -4.976320278795699E-17   6.946831390681876E-17    -9.916938549834127E-20   4.0817461943946035E-20   1.0772789797594619E-18   -1.5448284550098874E-17  -1.3899230632171769E-18
8.5E-6                    -6.096573598218571E-21   3.4663770897398505E-21   5.033549659324014E-20    -1.1783592488740717E-20  -4.4761640377540614E-17  1.5026764890442557E-16   -2.1365025094645943E-20  -1.3302581420168377E-18  4.064999357785704E-18    -8.092886223336503E-18   -6.324825939885225E-17
9.0E-6                    1.9581162519191876E-20   3.3034901204607313E-22   4.283660199075507E-21    -5.170742969770218E-20   2.1818886842760316E-16   -2.5537876457648662E-17  -3.1452642736883416E-19  -3.9461510217480214E-18  -1.2581327099614941E-17  -5.847984240702103E-17   -2.0842654086062203E-16
9.499999999999999E-6      4.041874304455052E-20    -1.4027719942257018E-20  -9.794731846494683E-20   1.869529039004703E-19    4.484077927603309E-16    -3.2635785411737606E-16  -3.2032693452276913E-18  -9.523246633728876E-18   -5.879307819598712E-17   -2.859286642777039E-16   -2.615925351925033E-16
9.999999999999999E-6      -4.26634524523557E-20    -1.8281202554191792E-20  -4.2339413513207743E-20  1.2107505949378844E-18   7.328920278736443E-17    2.0699469129644099E-16   -9.863403865728183E-18   -3.114916980375965E-17   -1.055882490985464E-16   -8.928253740469675E-16   -3.5552060252162813E-17
1.05E-5                   -1.9871116610592853E-19  3.118173428361347E-20    5.251441852399629E-19    3.435293995741931E-18    -4.0291871746364026E-17  2.3654703853140223E-15   -1.9389660134362933E-17  -9.384834936982575E-17   -2.0399172375026582E-16  -2.0267076265419704E-15  -5.695989711522238E-16
1.1E-5                    -5.2714379625714054E-20  6.57419668044235E-20     2.0062048718289177E-18   7.854191457440994E-18    2.2409413747963278E-15   5.01329446984602E-15     -4.0798036721850113E-17  -2.3343318866104346E-16  -6.665229406786735E-16   -3.345884207637091E-15   -4.193294721111474E-15
1.15E-5                   6.6290668592107955E-19   -2.0254563164105122E-19  3.912355825282097E-18    1.8894819515408652E-17   6.053871488107888E-15    6.04317559139385E-15     -1.1700626606222267E-16  -5.607444967495543E-16   -1.894389832670382E-15   -5.2763903215560176E-15  -1.0575772614521247E-14
1.2E-5                    8.835910854705182E-19    -6.702393583654802E-19   4.2036764984506804E-18   4.731512180925276E-17    7.337259206800908E-15    8.803906938410937E-15    -3.3982859837233506E-16  -1.3964528179508207E-15  -4.047928043414611E-15   -1.3625282885097449E-14  -1.6235487062357978E-14
1.2499999999999999E-5     -1.4809939355898292E-18  -2.1308785722515073E-19  5.615366719284926E-18    1.145072839711219E-16    9.748533968896208E-15    2.9291914465819427E-14   -8.416131181498802E-16   -3.339553310907571E-15   -7.90585843286385E-15    -3.971722583131235E-14   -2.8259180615545265E-14
1.3E-5                    -4.8286293327257275E-18  7.063748459211578E-19    2.777677846804236E-17    2.7857841972949557E-16   3.1135797057883786E-14   9.050555267878967E-14    -1.8230232367761858E-15  -7.386744343741048E-15   -1.7324803337134906E-14  -8.7466182849315E-14     -7.474342119856051E-14
1.35E-5                   -6.501134081617804E-19   -3.4743767016848996E-18  1.0083456935322843E-16   6.924311336093541E-16    8.479204912958691E-14    2.0493080872595787E-13   -3.813685606022172E-15   -1.581306558302883E-14   -4.083913609358318E-14   -1.5331976121449003E-13  -1.8461667965843867E-13
1.4E-5                    1.3205867667639954E-17   -1.584707651974622E-17   2.311653376251626E-16    1.630754099351819E-15    1.6010229877761478E-13   3.896418698914424E-13    -8.326544969756033E-15   -3.416224425040861E-14   -9.092490338505018E-14   -2.7938037554584094E-13  -3.7799243648067784E-13
1.45E-5                   1.1900072244651658E-17   -2.4778972655746598E-17  4.041059499544059E-16    3.47806800673233E-15     2.632276422415206E-13    7.487138412774954E-13    -1.8509077272561234E-14  -7.321734017754381E-14   -1.865889415579748E-13   -6.043953614267599E-13   -7.337411949318215E-13
1.4999999999999999E-5     -3.27404314035525E-17    -2.6495812359625158E-17  7.083086672292118E-16    7.037124052146026E-15    5.036457142535108E-13    1.537236423975418E-12    -3.901882752348713E-14   -1.5059130444996478E-13  -3.6836108460895E-13     -1.2903877968910225E-12  -1.452741362450245E-12
1.55E-5                   -8.004242546845559E-17   -7.590671366719656E-17   1.5368138241578061E-15   1.4547439649607167E-14   1.0907889707499608E-12   3.0897561029785273E-12   -7.627729635714817E-14   -2.968575026491938E-13   -7.245915486881646E-13   -2.42370750746406E-12    -2.7866224989283632E-12
1.6E-5                    -3.391372520811214E-17   -2.645576779464917E-16   3.6944774729306235E-15   3.064585988792466E-14    2.1973486071574914E-12   5.757195305485651E-12    -1.438314810856808E-13   -5.741146583900186E-13   -1.4129363800605284E-12  -4.2185674071208445E-12  -5.017550572902034E-12
1.6499999999999998E-5     7.18397493113352E-17     -6.203110037729745E-16   8.331092756369815E-15    6.197166330173904E-14    3.949364612404795E-12    1.0119517656979612E-11   -2.7561856189563195E-13  -1.1043919304786216E-12  -2.6603068782342805E-12  -7.425848181296299E-12   -8.747108281682E-12
1.7E-5                    -3.4619026748808286E-17  -1.1632264555453096E-15  1.6880164912202945E-14   1.1779494810292983E-13   6.749251024850427E-12    1.7124089362896067E-11   -5.393831347492013E-13   -2.0867810895393907E-12  -4.7394091250137375E-12  -1.315079684212756E-11   -1.4990175480692234E-11
1.75E-5                   -5.83460739108819E-16    -2.2194177539319964E-15  3.160206198102612E-14    2.1868386465890532E-13   1.147663382944892E-11    2.7253554056856075E-11   -1.0394183851216567E-12  -3.781521356395755E-12   -7.92304053752281E-12    -2.1740341355510292E-11  -2.42211922124814E-11
1.8E-5                    -1.3933961197053737E-15  -4.635381761622583E-15   5.792677781115214E-14    4.144761287079942E-13    1.8859064157823152E-11   3.9032057436472854E-11   -1.916041699955231E-12   -6.458137249858793E-12   -1.2386112537258787E-11  -3.190717307167412E-11   -3.508410362626625E-11
1.85E-5                   -2.1339212058302544E-15  -9.727015274890568E-15   1.0918634469104213E-13   7.976447554455891E-13    2.836638324810315E-11    4.916764104031093E-11    -3.3546844636362054E-12  -1.0296978331402034E-11  -1.8003128590655185E-11  -4.143200127238343E-11   -4.493517324493859E-11
1.8999999999999998E-5     -3.2711456099656644E-15  -1.9624727840567374E-14  2.106840065466437E-13    1.4979461222536169E-12   3.8031734938534325E-11   5.552905909666162E-11    -5.565143457098855E-12   -1.5207658942273893E-11  -2.4081773624642065E-11  -4.875714462456438E-11   -5.2294640017500955E-11
1.95E-5                   -6.833788469527981E-15   -3.856049476138467E-14   3.9805702082539163E-13   2.6675901852788044E-12   4.564969777252458E-11    5.969288803266286E-11    -8.649949032462038E-12   -2.0615098487940195E-11  -2.9283736118005036E-11  -5.344403387203141E-11   -5.7812589190207345E-11
1.9999999999999998E-5     -1.6250452460111432E-14  -7.469240686907302E-14   7.154857425393358E-13    4.4700632229333445E-12   4.989826201064134E-11    6.460418083326766E-11    -1.2396529914766262E-11  -2.5458672545972732E-11  -3.2038065490556335E-11  -5.512926842737042E-11   -6.182545780178936E-11
2.05E-5                   -3.544625462562993E-14   -1.4248624997432192E-13  1.2357777944143405E-12   7.040461520889935E-12    5.01114388133002E-11     6.914725097244506E-11    -1.622906210212074E-11   -2.858216266556567E-11   -3.1345408609834246E-11  -5.282850260341104E-11   -6.213347574097255E-11
2.1E-5                    -6.888410988451879E-14   -2.664528470850986E-13   2.1083655017146227E-12   1.0363155973306148E-11   4.558125294282454E-11    6.7285572199445E-11      -1.9481928772043026E-11  -2.918392969545821E-11   -2.7286571575736145E-11  -4.5725636857614146E-11  -5.605347934016344E-11
2.1499999999999997E-5     -1.256735587235333E-13   -4.847178332905407E-13   3.5785147372196247E-12   1.4102613235246235E-11   3.590905783169302E-11    5.447656483222928E-11    -2.171649836788767E-11   -2.6760987898191484E-11  -2.064486720041453E-11   -3.416785100093212E-11   -4.395463347917099E-11
2.2E-5                    -2.282714082191254E-13   -8.485253157914574E-13   5.891912469061975E-12    1.7545249092686144E-11   2.1979028246111467E-11   3.318634023397192E-11    -2.2604297236305672E-11  -2.0728749205554767E-11  -1.2027762055820778E-11  -1.9240196332217454E-11  -2.832387603209768E-11
2.2499999999999998E-5     -4.187560856265164E-13   -1.4168812541367545E-12  9.099975016221705E-12    1.9773599395219413E-11   5.775832382335739E-12    8.780812441858449E-12    -2.1484665059383242E-11  -1.066894536806354E-11   -1.4799334206289756E-12  -1.2495856217112026E-12  -9.165760008405649E-12
2.3E-5                    -7.547149960054938E-13   -2.246725952818778E-12   1.2932154778942999E-11   1.999235243058687E-11    -1.1347954931210039E-11  -1.9971095447941148E-11  -1.740692842002018E-11   2.7083320800532815E-12   1.1231943506569543E-11   2.1287543692242673E-11   1.7429217711300504E-11
2.35E-5                   -1.2999039969895834E-12  -3.369467188797276E-12   1.687072504418142E-11    1.7791220258607343E-11   -3.035877369673932E-11   -6.246961004609956E-11   -1.0015641887690518E-11  1.7459631322671054E-11   2.6515313033651305E-11   5.120832106825299E-11    5.5529057063340334E-11
2.4E-5                    -2.1206938221841275E-12  -4.744146807325415E-12   2.0319841540364436E-11   1.3209687496394818E-11   -5.4594778955460384E-11  -1.255660771589131E-10   -2.6033455525091695E-13  3.2177002705909486E-11   4.5292000854927724E-11   9.112180621235757E-11    1.059499943168764E-10
2.45E-5                   -3.276584142521381E-12   -6.210955457772223E-12   2.2634572877200043E-11   6.63047280171801E-12     -8.808208083822856E-11   -2.0305171435754112E-10  1.0376655900814389E-11   4.779861637446411E-11    6.874563350873128E-11    1.4183845778172888E-10   1.6695730224781482E-10
2.4999999999999998E-5     -4.774944208205919E-12   -7.50181997989882E-12    2.3014808579855063E-11   -1.4205346542219113E-12  -1.331752199848606E-10   -2.8038056941845183E-10  2.167323882469934E-11    6.678375934327769E-11    9.697750157924069E-11    2.020459315919347E-10    2.363665219137983E-10
2.55E-5                   -6.498127386040868E-12   -8.327732165144276E-12   2.056498507603276E-11    -1.0545629058470004E-11  -1.889177381111342E-10   -3.520090357686593E-10   3.5324263198681784E-11   9.02745837766876E-11     1.2802640448308742E-10   2.6932011151518926E-10   3.1225778933321404E-10
2.6E-5                    -8.17121427488277E-12    -8.474190735350937E-12   1.4670797761758466E-11   -2.0795412948415327E-11  -2.5117840159477523E-10  -4.305944982610022E-10   5.3330845087254754E-11   1.1678922085811306E-10   1.5886035756589163E-10   3.411669703883934E-10    3.9334527895446796E-10
2.65E-5                   -9.422499482553806E-12   -7.81971278260645E-12    5.366095367338338E-12    -3.285464781677856E-11   -3.1457644709436475E-10  -5.329112906890215E-10   7.57975949753968E-11     1.4389630091306434E-10   1.8761451962567346E-10   4.151844088231161E-10    4.792794490842054E-10
2.7E-5                    -9.896976493416667E-12   -6.2943215745171045E-12  -6.749541306135359E-12   -4.7749196749302984E-11  -3.750388322004589E-10   -6.552579109351623E-10   1.0064003319384984E-10   1.7027922163328892E-10   2.1468665553520992E-10   4.890364471099611E-10    5.689184240011963E-10
2.7499999999999998E-5     -9.347095608219152E-12   -3.873668898140306E-12   -2.0983733898932192E-11  -6.59582791652899E-11    -4.314189661759167E-10   -7.688053570599242E-10   1.2530633484192678E-10   1.9569215833292654E-10   2.41504519522161E-10     5.608786211958317E-10    6.577027513367251E-10
2.8E-5                    -7.696550667190417E-12   -6.239122374235388E-13   -3.6908332035851505E-11  -8.652803344209704E-11   -4.849407459912584E-10   -8.452585016970693E-10   1.4829935050780064E-10   2.1973192397488054E-10   2.682872357669432E-10    6.29216029442737E-10     7.383503960728593E-10
2.8499999999999998E-5     -5.101943029374953E-12   3.3149599657460617E-12   -5.4318770916537445E-11  -1.07238912348635E-10    -5.361813084577397E-10   -8.846201731724001E-10   1.6911765397351488E-10   2.4134799736332285E-10   2.931001754271592E-10    6.912067613103425E-10    8.04596208895062E-10
2.9E-5                    -1.9180998628433943E-12  7.869063386697356E-12    -7.303672074003934E-11   -1.2612444909291588E-10  -5.813481961322079E-10   -9.102017715098254E-10   1.8755884725267334E-10   2.5890865762971826E-10   3.1290271581133444E-10   7.407134429182462E-10    8.523603827866351E-10
2.95E-5                   1.5868793178410572E-12   1.3167375222086593E-11   -9.283858984490451E-11   -1.4303013438505442E-10  -6.114866764772639E-10   -9.351416048944796E-10   2.0358174256635994E-10   2.6994793438021945E-10   3.2484151726026246E-10   7.684504663073939E-10    8.764593115306386E-10
2.9999999999999997E-5     5.654956035491187E-12    1.9521138461807177E-11   -1.1341319536667595E-10  -1.5934463040923028E-10  -6.165170332026256E-10   -9.40460634895344E-10    2.1723276526292114E-10   2.712137585770905E-10    3.2595894423929145E-10   7.645610637748449E-10    8.681244589425936E-10
3.05E-5                   1.1122518468225446E-11   2.728931510308462E-11    -1.3420009478989118E-10  -1.7575720109098434E-10  -5.906714080030509E-10   -8.896316277785611E-10   2.2770949754784347E-10   2.596294448701169E-10    3.1230056677903345E-10   7.21477470371905E-10     8.173768115767061E-10
3.1E-5                    1.8842506897595873E-11   3.675755414568472E-11    -1.5432984124108128E-10  -1.9028122515137588E-10  -5.333784159652285E-10   -7.599314632817612E-10   2.3225883707236383E-10   2.330564974800583E-10    2.7988949590845873E-10   6.348657658719901E-10    7.170659030129135E-10
3.15E-5                   2.8874960267603142E-11   4.797287412400628E-11    -1.7289462711549734E-10  -1.9879954330771447E-10  -4.4448264478639213E-10  -5.55020345145105E-10    2.265000060941273E-10    1.8998471553419028E-10   2.2714241794603698E-10   5.024668323782187E-10    5.63557797410935E-10
3.2E-5                    4.0335937473885705E-11   6.044001751540351E-11    -1.891911617696099E-10   -1.9759559305746075E-10  -3.194419256806623E-10   -2.9043702754638857E-10  2.0627829102790392E-10   1.2929633273551226E-10   1.5527615528929098E-10   3.223051357708428E-10    3.54165645799219E-10
3.25E-5                   5.217724068735864E-11    7.297374753866023E-11    -2.023694730901402E-10   -1.850590071582868E-10   -1.5005903520063174E-10  2.7061108817161553E-11   1.693731866815698E-10    5.097601797008659E-11    6.562317527645511E-11    9.160046392619089E-11    8.506688935625678E-11
3.2999999999999996E-5     6.408532885649909E-11    8.419372471514023E-11    -2.107250269544513E-10   -1.6094593504012034E-10  7.019944034169548E-11    4.0627885124540025E-10   1.156774379471092E-10    -4.3720887581535164E-11  -4.2584943620017914E-11  -1.9328989180291354E-10  -2.482303219355384E-10
3.35E-5                   7.651298104541043E-11    9.34661551787368E-11     -2.1163417674494302E-10  -1.2466765498747653E-10  3.417203689013305E-10    8.629900973227707E-10    4.6097736334176676E-11   -1.5387162865350424E-10  -1.7102175291182277E-10  -5.357643404562604E-10   -6.488312036061414E-10
3.4E-5                    8.983698640199365E-11    1.0122707284176648E-10   -2.0250705538218005E-10  -7.499371229906427E-11   6.585942949959131E-10    1.4056264684165776E-9    -3.8712618969989236E-11  -2.8034027796401305E-10  -3.197922173929319E-10   -9.364603393170532E-10   -1.116468368777042E-9
3.45E-5                   1.035349631932934E-10    1.080005367448609E-10    -1.8174652999184627E-10  -1.127950838576818E-11   1.0118012838601412E-9    2.0248696246693943E-9    -1.3893983426269634E-10  -4.245110032598659E-10   -4.872198032440843E-10   -1.3904702680570508E-9   -1.6461621303998012E-9
3.5E-5                    1.1611431107069069E-10   1.1295458369323767E-10   -1.4854202527404575E-10  6.583797779691392E-11    1.3925262246209068E-9    2.693449871665758E-9     -2.5511538602386065E-10  -5.852519353422529E-10   -6.712738242085537E-10   -1.886921338095562E-9    -2.2272577290547965E-9
3.5499999999999996E-5     1.257253224213552E-10    1.1357894911938472E-10   -1.0178006444261076E-10  1.554556611334081E-10    1.7930871483214917E-9    3.3767352445549775E-9    -3.8670286253706483E-10  -7.574690291801776E-10   -8.694897757818955E-10   -2.4115152670960768E-9   -2.8429366492864255E-9
3.6E-5                    1.3085886070082041E-10   1.0690561440346696E-10   -3.946156142436995E-11   2.5768215907356913E-10   2.204964237963364E-9     4.046143542289846E-9     -5.308254711515145E-10   -9.33364421479705E-10    -1.0771980670656972E-9   -2.948590907884893E-9    -3.4710457605757244E-9
3.65E-5                   1.305524209871381E-10    9.106317054215962E-11    4.0689691546910314E-11   3.7297226958988373E-10   2.6155366174041804E-9    4.68397087015772E-9      -6.824030684236312E-10   -1.1043420987333764E-9   -1.2868397613743422E-9   -3.4797751095695527E-9   -4.086462253759129E-9
3.7E-5                    1.2395921496466726E-10   6.583684055303523E-11    1.4013669395972746E-10   4.996389753391714E-10    3.006273645143891E-9     5.275938601133477E-9     -8.355977351455417E-10   -1.261814023992313E-9    -1.4892282226105756E-9   -3.981704576628757E-9    -4.663304872993599E-9
3.75E-5                   1.0976462955613267E-10   3.211222572999526E-11    2.588745332859495E-10    6.322682445017346E-10    3.3542141265678524E-9    5.798614931841247E-9     -9.849416520561311E-10   -1.3973244867276603E-9   -1.6745587750688395E-9   -4.427062268350302E-9    -5.174747381750851E-9
3.7999999999999995E-5     8.622468267809772E-11    -9.080372415326039E-12   3.95260569922208E-10     7.632204395251283E-10    3.6357798807937587E-9    6.211295181273172E-9     -1.1249227525564171E-9   -1.5026859669582777E-9   -1.8320395248269605E-9   -4.787772983564413E-9    -5.590454670848228E-9
3.85E-5                   5.199001444998551E-11    -5.734411351969049E-11   5.459254584325334E-10    8.860271044431962E-10    3.829460702331594E-9     6.4572987509024214E-9    -1.2486438391328195E-9   -1.5697967242892772E-9   -1.949931302780167E-9    -5.035560389013233E-9    -5.8744198869782135E-9
3.9E-5                    6.858488700871145E-12    -1.1323664869185696E-10  7.057301626643668E-10    9.971871507522863E-10    3.914652127210592E-9     6.475563391865204E-9     -1.3471309034910797E-9   -1.5902079402586103E-9   -2.0171592288632675E-9   -5.139743457554985E-9    -5.986015929747492E-9
3.95E-5                   -4.84844594579261E-11    -1.778961098691992E-10   8.680419614598058E-10    1.0944001183077514E-9    3.868344946582044E-9     6.2182344683954795E-9    -1.4101113274827073E-9   -1.555472841273126E-9    -2.0245801472115598E-9   -5.067323393259941E-9    -5.884305582427932E-9
3.9999999999999996E-5     -1.1350513827552107E-10  -2.5202408537371195E-10  1.0254150903243599E-9    1.1729320760293155E-9    3.664829751369836E-9     5.661581262296073E-9     -1.4277426287082772E-9   -1.458271913751698E-9    -1.964026017073594E-9    -4.787179508543589E-9    -5.532923970276628E-9
4.0499999999999995E-5     -1.8840883239965084E-10  -3.348515996606544E-10   1.1704640944006244E-9    1.223608560596675E-9     3.280747562937515E-9     4.79847736357283E-9      -1.3919840324090998E-9   -1.2927255058078685E-9   -1.826674354288049E-9    -4.274083524172051E-9    -4.90274969018568E-9
4.1E-5                    -2.7351474956746595E-10  -4.237860421240878E-10   1.2964943857490196E-9    1.2342252069454962E-9    2.701046983032025E-9     3.619137102293107E-9     -1.2965812046648657E-9   -1.0535611203116472E-9   -1.603563190242668E-9    -3.509164380663302E-9    -3.972087707922042E-9
4.15E-5                   -3.679822258444239E-10   -5.147922410208659E-10   1.3973140520089837E-9    1.1930328651442924E-9    1.9197909428958932E-9    2.102472868288714E-9     -1.1360155303062309E-9   -7.362634361265803E-10   -1.2881010368131525E-9   -2.478962215064248E-9    -2.726567275705189E-9
4.2E-5                    -4.690416935104707E-10   -6.030312701777321E-10   1.466046465934589E-9     1.0914896114113584E-9    9.36318377496762E-10     2.2930323152033161E-10   -9.050636965522661E-10   -3.3931284337532995E-10  -8.778418569600642E-10   -1.1764473929874382E-9   -1.1607404389492624E-9
4.2499999999999996E-5     -5.722669538053165E-10   -6.833955081885882E-10   1.4937957289747704E-9    9.246893837136801E-10    -2.4679376891600615E-10  -1.996300068953686E-9    -6.000534822634696E-10   1.3383241882266858E-10   -3.742198430707405E-10   3.9593932300426353E-10   7.19115445654837E-10
4.2999999999999995E-5     -6.725013425612872E-10   -7.508617919370051E-10   1.4695359343915175E-9    6.901985808731261E-10    -1.6203660958797528E-9   -4.5374910482336995E-9   -2.2082812066796148E-10  6.753199395921159E-10    2.1826576015722767E-10   2.2232756493184223E-9    2.8930222700193366E-9
4.35E-5                   -7.646970004512183E-10   -8.006194937185559E-10   1.3815907254242866E-9    3.872140614901609E-10    -3.163352275881134E-9    -7.33125357314717E-9     2.285073578939909E-10    1.2744917030404886E-9    8.918258452361347E-10    4.276805402788737E-9     5.326969788339122E-9
4.4E-5                    -8.441837074356081E-10   -8.28007068196736E-10    1.2195411035988666E-9    1.716303004917994E-11    -4.8408875622733484E-9   -1.0301458875979297E-8   7.40492481142423E-10     1.91760191220314E-9      1.6346941711283058E-9    6.514771511220701E-9     7.973037877884236E-9
4.45E-5                   -9.063558877516722E-10   -8.285016622454533E-10   9.752836728186667E-10    -4.14890468761209E-10    -6.606496063921021E-9    -1.3367344778691974E-8   1.305358780605273E-9     2.5862356070448998E-9    2.4315371562817543E-9    8.884216316386757E-9     1.076868037683728E-8
4.4999999999999996E-5     -9.461320856559034E-10   -7.978550939366577E-10   6.433718533729293E-10    -8.996248491317624E-10   -8.40568867630318E-9     -1.6441267232645114E-8   1.910709428749321E-9     3.2575094675744696E-9    3.264949810991091E-9     1.1321306052709336E-8    1.3635466351251365E-8
4.5499999999999995E-5     -9.576248418345283E-10   -7.320103400829709E-10   2.217631326630085E-10    -1.424424983128449E-9    -1.0178451725393909E-8   -1.9418241317633652E-8   2.5400717630942592E-9    3.906784675469876E-9     4.1162220993547445E-9    1.3749822376884326E-8    1.647871506262231E-8
4.6E-5                    -9.34248745784435E-10    -6.265959602900709E-10   -2.866651375550611E-10   -1.975021179699051E-9    -1.1859869968649542E-8   -2.216961479588683E-8    3.1719862496259617E-9    4.51018465922383E-9      4.964310420038631E-9     1.608083951483481E-8     1.9189251797822114E-8
4.65E-5                   -8.691957204914134E-10   -4.767143316028534E-10   -8.729523752791168E-10   -2.5361983403557837E-9   -1.3379606294461946E-8   -2.4551425837256644E-8   3.780939511068424E-9     5.044539043639228E-9     5.784508698106095E-9     1.821574891747396E-8     2.164756613355418E-8
4.7E-5                    -7.560669024959488E-10   -2.7798109228852064E-10  -1.5225949099088852E-9   -3.0910640524783228E-9   -1.4662142494913941E-8   -2.6421643190467996E-8   4.339752121964137E-9     5.485595415988959E-9     6.5490087438651736E-9    2.0050614780421636E-8    2.372944431533499E-8
4.7499999999999996E-5     -5.895061217783848E-10   -2.8471496876365687E-11  -2.2176926993960072E-9   -3.6197994834863595E-9   -1.5629462861761784E-8   -2.7649974735058975E-8   4.821802105102681E-9     5.807270746522006E-9     7.229141924437482E-9     2.1479172423082447E-8    2.53111158159882E-8
4.8E-5                    -3.657766108640642E-10   2.700990294732158E-10    -2.939064205329904E-9    -4.098992261805536E-9    -1.62057409033347E-8     -2.8114628983754455E-8   5.201956531677457E-9     5.983455593917982E-9     7.797060661964402E-9     2.239556392234709E-8     2.6272375709796175E-8
4.85E-5                   -8.323902436354344E-11   6.130060921267666E-10    -3.6667150002200213E-9   -4.502026660416724E-9    -1.632197731720927E-8    -2.7697541495036257E-8   5.456470472234258E-9     5.991272067430229E-9     8.225804265178784E-9     2.2699458773948245E-8    2.6498567099681374E-8