% Model:              Untitled.mph
% Version:            COMSOL 6.0.0.405
% Date:               Jul 16 2025, 18:07
% Dimension:          1
% Nodes:              401
% Expressions:        11
% Description:        Point graph
% Time (s)                Displacement field, Y component Displacement field, Y component Displacement field, Y component Displacement field, Y component Displacement field, Y component Displacement field, Y component Displacement field, Y component Displacement field, Y component Displacement field, Y component Displacement field, Y component Displacement field, Y component
0                         2.1344205062035087E-37   2.6385111939675704E-37   -1.6179761125742583E-34  1.2828471016181423E-34   -1.1324356439193615E-34  -1.6003217440513788E-31  -4.222001814761884E-31   -3.450661646476236E-31   -5.2110849270249295E-30  -6.569564701094084E-31   1.469052796893509E-35
5.0E-7                    -1.385959563806034E-29   3.866584857016681E-27    -1.1560686384607471E-26  7.913044197066505E-25    7.588487623677594E-24    8.316854925668562E-23    -3.5789306693558433E-22  4.930729298982082E-23    7.52062066208922E-22     1.145548928813726E-22    -5.603231406717255E-28
1.0E-6                    -4.824545515003719E-28   -2.4374297912287416E-26  7.131226298311811E-25    1.2625123774831043E-24   -1.4168494211698283E-23  -1.112100136802749E-21   1.5523070001894527E-21   6.1362416229384065E-22   1.2694716943225097E-21   -6.230712660761144E-22   -1.8129939889868757E-26
1.5E-6                    4.637407838542736E-27    7.100787364132823E-26    -1.0226239311962719E-24  -1.152747831916642E-23   1.658725263118138E-23    1.8949293848452427E-21   -1.8044776418062628E-22  -8.360079944690383E-21   -8.136709145988446E-21   9.345251858452416E-22    8.639448169099807E-26
2.0E-6                    -5.2040778416357925E-27  -1.5453397249745955E-25  -3.1359039568297966E-24  -4.186008314607116E-23   -1.5986608127271467E-22  3.947969166413356E-21    -2.0553848982006787E-21  1.1770199409786555E-20   2.2962134557201017E-20   1.0326985718123849E-20   -2.194065618910137E-25
2.4999999999999998E-6     -4.1994744566739495E-26  2.3390788239655083E-26   -1.4600010950097806E-23  2.647091454367082E-23    -3.6791649610339454E-22  -1.333619463137514E-21   5.992716919009377E-22    9.38820990054023E-21     -1.022378651414808E-19   -4.5924155715367335E-20  1.779493921056288E-25
3.0E-6                    3.424873727814301E-26    5.942912293945157E-25    5.94529542574118E-23     4.455872464719451E-22    1.604221427128594E-21    3.3314557928462043E-21   6.168951969346167E-21    -4.2403606546495007E-20  2.370948679886079E-19    2.931815956478725E-20    9.166861974753901E-25
3.5E-6                    3.292961689512952E-25    3.3816110306172195E-25   3.854205926731534E-22    4.990944892738704E-22    3.3556264756604886E-21   -7.307379776804144E-20   -8.687386116594375E-20   3.0304376383938952E-21   -3.518833794029632E-19   1.63191893224185E-19     -8.657504480655385E-25
4.0E-6                    1.6652830304733505E-26   -1.1760642849708833E-24  -9.543781895244357E-22   -1.9673001836719387E-21  -6.4283707722659104E-21  -1.283191153050389E-19   5.097275527157285E-20    3.3555032143256964E-19   -7.902059715850345E-19   -3.4847542212640194E-19  -4.765218550833313E-24
4.5E-6                    -2.0211529003118856E-24  -1.1387361466635787E-23  -4.898833638306103E-21   -5.193736655974924E-21   -1.894672927206185E-20   2.7503958608976344E-19   7.067047853674745E-19    2.217368177041981E-19    4.258671488052405E-18    -3.5873255306910496E-19  -2.549161719344362E-24
4.9999999999999996E-6     -1.6510236779423814E-24  1.5430017558991445E-23   7.089234102730584E-21    -5.146030836292003E-22   2.000121944176638E-20    1.1181576760887864E-18   -3.4622104342485033E-19  -2.166272882891431E-18   5.366594376017412E-19    1.3698619140318256E-18   1.7390581416958435E-23
5.5E-6                    8.172614462589636E-24    7.008924665867888E-23    4.505977993094898E-20    2.1338090504012704E-20   7.180750891976306E-20    1.0297478416332473E-18   -3.2906358803848832E-18  -1.767378839626839E-18   -1.7195893670450068E-17  8.613902334962767E-19    3.1702146566327724E-23
6.0E-6                    1.4326754845228505E-23   -1.4703706700127566E-22  -1.4643987242589123E-20  5.576079066165662E-20    -1.0031362289968994E-19  -3.959626336235028E-18   -3.4293494711603954E-20  5.385324856442082E-18    -1.1452046908426679E-17  -4.733412062119758E-18   1.464482044343337E-23
6.5E-6                    -1.5152297748327908E-23  -2.0741170226647159E-22  -2.9794015632868138E-19  1.4536620871153572E-20   -2.623333283433711E-19   -1.400850093266835E-17   7.942257013649812E-18    -4.1299829806509385E-18  3.1001420810912386E-17   -5.987901038946682E-18   -4.909352085906842E-23
7.0E-6                    -6.81131777674125E-23    1.200091284382487E-21    -2.146542200747073E-19   -2.901145806034527E-19   6.247384918053477E-19    -6.368396692196206E-18   -5.998629986205372E-18   -3.032383548950837E-17   8.664404122889353E-17    8.201744529905127E-18    -3.8778197942422367E-22
7.499999999999999E-6      -3.776959323937535E-23   1.4143338437914274E-22   1.3015597836623556E-18   -6.607313621316598E-19   1.49781738701715E-18     5.476018868353646E-17    -3.537883602146244E-17   1.343290247071505E-17    1.0837005882004419E-17   1.5030840528907686E-17   -1.0104814817757884E-21
8.0E-6                    1.7476623406672903E-22   -9.75544442897203E-21    2.463228625539616E-18    2.5091719442475848E-19   -2.4368309461352992E-18  1.168046708236882E-16    9.317513100167236E-18    1.257119218538354E-16    -4.704294350591464E-16   -5.3658789735969064E-17  5.3315070551785525E-22
8.5E-6                    3.134501829242687E-22    -3.1676473955448905E-21  -2.7928590392741943E-18  3.6622485019365286E-18   -9.216809275193491E-18   -4.965251343612269E-17   1.1664346037775637E-16   -4.377064664379521E-17   -7.411003798108264E-16   -1.9088727538274124E-16  8.662825791678299E-21
9.0E-6                    -1.681104162512141E-22   6.250859535910781E-20    -1.3246864702254406E-17  5.091016497327246E-18    4.410032949014066E-19    -5.295060853333306E-16   -4.704406593766401E-17   -9.143109257184025E-16   8.217817085448505E-16    -1.555879446954436E-16   1.3137458614382077E-20
9.499999999999999E-6      -5.522748181468558E-22   7.30716718873575E-20     -5.622259457698561E-18   -7.82696556206948E-18    3.497196274829535E-17    -5.748557741944091E-16   -7.323274637974141E-16   -1.8467368873930457E-15  2.5181608128774152E-15   8.373265828792041E-17    -2.871765214612695E-20
9.999999999999999E-6      8.776160893596559E-22    -2.528704139345148E-19   3.976630444560597E-17    -3.3172980956145785E-17  3.601055059337542E-17    9.175813570708618E-16    -1.2859917233780991E-15  -6.057453605578463E-16   -2.642439109876198E-15   -7.087369147721017E-16   -1.1512093255631394E-19
1.05E-5                   -6.198819318365064E-22   -6.27223898018474E-19    6.843890614662245E-17    -1.7899787118283976E-17  -8.67309365687093E-17    2.778155552534805E-15    -3.5431008304552978E-16  3.115794485636832E-15    -1.4152180444234258E-14  -4.18871236712428E-15    -2.762535179609243E-20
1.1E-5                    -1.379197941688987E-20   3.665746271747326E-19    -3.897961870183191E-17   9.646427802143256E-17    -2.5205567913333417E-16  6.134191505004391E-16    2.0248280489032192E-15   8.344608044592155E-16    -1.269048077651124E-14   -8.640621127936507E-15   4.792751262602397E-19
1.15E-5                   -1.0490393542829628E-20  2.970254986656518E-18    -2.552097119662478E-16   1.8987856509181005E-16   -9.996046447786351E-17   -7.176237140973334E-15   1.0987567119994677E-15   -2.2037112232787327E-14  8.614259485513321E-15    -1.0904822499168431E-14  7.595056197235619E-19
1.2E-5                    7.748840329169788E-20    2.273374353632088E-18    -2.1730007212721526E-16  -6.897519893796475E-17   5.17815316436353E-16     -1.1622790368812862E-14  -1.2570292951214571E-14  -6.127528136740353E-14   -3.5069512660501578E-15  -2.2207184816436065E-14  -8.728446564700744E-19
1.2499999999999999E-5     1.6123291880192348E-19   -7.751585921270149E-18   4.1002629334330533E-16   -6.76634417197191E-16    6.972196727672825E-16    4.684611503392913E-16    -3.944295778583551E-14   -7.261952263277872E-14   -1.0946325914118412E-13  -7.603420880702005E-14   -3.931293913520091E-18
1.3E-5                    -1.6002204952719698E-19  -1.7584777415894507E-17  1.0739464260281217E-15   -6.759379220793342E-16   -1.0841073111238502E-15  2.2582408959074286E-14   -5.099268753280324E-14   -2.5906876719496774E-14  -2.415031834930497E-13   -1.9518577594646783E-13  -2.0471468700052587E-18
1.35E-5                   -9.085438807164357E-19   2.091707068659534E-18    3.187430366923197E-16    9.208108720350319E-16    -4.4050610086669375E-15  1.575388966046444E-14    -1.6378552456315074E-14  -3.596255443093862E-14   -2.7494921044883967E-13  -3.680771517648204E-13   1.0354322694745381E-17
1.4E-5                    -5.581119661965219E-19   5.530514934670241E-17    -2.2049443852324713E-15  2.6583807574217634E-15   -5.472508518153789E-15   -5.360590445202236E-14   3.5928695039287943E-16   -3.571469698344596E-13   -3.768823721276061E-13   -6.557964702914652E-13   1.9757514295740464E-17
1.45E-5                   2.5251193475224356E-18   6.135682395490598E-17    -3.635713658980255E-15   5.781098756271192E-16    -1.7659324895538471E-15  -1.4223316995631512E-13  -1.8380855754542525E-13  -1.0408414480046383E-12  -1.0374114600209098E-12  -1.3680325420769315E-12  -5.519371286403967E-18
1.4999999999999999E-5     4.866238077644766E-18    -8.429667227066988E-17   -1.4879069423158683E-16  -6.2230534108207145E-15  -1.9232459719400435E-16  -1.373327880015196E-13   -6.471059572077858E-13   -1.6469224518155255E-12  -2.4241079630594454E-12  -2.976053498689154E-12   -6.207625907057014E-17
1.55E-5                   -2.3905285520932766E-18  -2.881823794160239E-16   6.391739365626568E-15    -1.0568928786241933E-14  -1.6538160853721606E-14  -3.1782777393285926E-14  -1.1212913164260984E-12  -1.8009258587094088E-12  -4.103208411754795E-12   -5.741147156518993E-12   -5.82145544913886E-17
1.6E-5                    -1.8244750009854167E-17  -1.8149551460842632E-16  6.348768228996161E-15    -4.206271068911638E-15   -6.040187252570354E-14   -9.808059408349664E-14   -1.2999629846224611E-12  -2.3324885672005817E-12  -6.2233349718802244E-12  -9.819151728059008E-12   1.0106371814052012E-16
1.6499999999999998E-5     -1.6904263622951283E-17  4.0133150370195766E-16   -7.383003789507154E-15   6.289184736517798E-15    -1.2328071026966138E-13  -6.942711049376376E-13   -1.6270057972970294E-12  -5.250083920443219E-12   -1.076595740121501E-11   -1.6292559416319873E-11  2.9350029936720086E-16
1.7E-5                    2.4803449856513223E-17   7.110701556703222E-16    -2.6720250586029334E-14  -2.1066177954152622E-15  -1.9673457558939746E-13  -1.735562077998159E-12   -3.4222144623156498E-12  -1.1844881266129555E-11  -2.033377691900958E-11   -2.7641712239738562E-11  1.7181368673765826E-16
1.75E-5                   6.20398137706689E-17     -5.682759609474222E-16   -3.4634198381797377E-14  -4.525002413902746E-14   -3.149331191504829E-13   -2.620553004408189E-12   -7.655219070725608E-12   -2.1208195201779998E-11  -3.524260175142892E-11   -4.553898944362413E-11   -3.1178149814856025E-16
1.8E-5                    -1.3273713463524311E-17  -3.375599148414261E-15   -2.96328250825594E-14    -1.128968994808414E-13   -5.723901144804969E-13   -3.208560315262013E-12   -1.3739153235516731E-11  -3.1434799194069244E-11  -5.266612832994033E-11   -6.725301919720284E-11   -3.68517052731876E-16
1.85E-5                   -2.126930833233084E-16   -5.12827136249662E-15    -3.7280809798529146E-14  -1.899145744973487E-13   -1.0870153982135107E-12  -4.860437401696011E-12   -2.0268260811486352E-11  -4.1786430527850386E-11  -6.876195825161655E-11   -8.560711574353766E-11   1.0080469426209127E-15
1.8999999999999998E-5     -3.126971015271029E-16   -3.9246225917853245E-15  -9.315729075042238E-14   -2.9750268802739876E-13  -1.966063164356979E-12   -9.65542429543131E-12    -2.6991517193868823E-11  -5.2465311526974455E-11  -8.048779910077146E-11   -9.443541618442338E-11   3.4331849838581832E-15
1.95E-5                   -8.993205407096524E-17   -4.4908811258791775E-15  -2.281121856114017E-13   -5.00453838767748E-13    -3.3605510193645413E-12  -1.7851757983366395E-11  -3.5074023780491434E-11  -6.252259416767637E-11   -8.544656273086304E-11   -9.370019480593645E-11   5.178079342482532E-15
1.9999999999999998E-5     1.2861957166257747E-16   -1.820202360774754E-14   -4.769643942061434E-13   -8.837703532584617E-13   -5.553466236090546E-12   -2.6577884266615317E-11  -4.480735530208204E-11   -6.933649667618365E-11   -8.203132965788448E-11   -8.733573936621873E-11   6.6511506528230696E-15
2.05E-5                   -6.021964767885177E-16   -5.2539124692816487E-14  -8.704181248436714E-13   -1.5603552564795233E-12  -8.864407541633965E-12   -3.208776220358169E-11   -5.377979472367344E-11   -7.025227357575626E-11   -7.063773694867452E-11   -7.644699692774802E-11   1.3417187438683258E-14
2.1E-5                    -2.819615866933766E-15   -1.0271127587345979E-13  -1.3971923835037842E-12  -2.708538328293434E-12   -1.327741817927602E-11   -3.343631407561424E-11   -5.822253533288654E-11   -6.384240549550766E-11   -5.322339376617683E-11   -5.765684594347437E-11   3.25863532431586E-14
2.1499999999999997E-5     -5.5804612847063045E-15  -1.656901246968816E-13   -2.048661311388533E-12   -4.539166077244723E-12   -1.810517986511016E-11   -3.3044322699809536E-11  -5.601391718712569E-11   -4.990207932485837E-11   -3.090652206296188E-11   -2.9092177342587358E-11  6.597918291810772E-14
2.2E-5                    -7.575876504653464E-15   -2.714879698535267E-13   -3.0147092812378738E-12  -7.148635750322885E-12   -2.2172878375559204E-11  -3.330580758412416E-11   -4.781787691153354E-11   -2.9429493575422384E-11  -3.332665947846429E-12   5.58731946032036E-12     1.143235161814387E-13
2.2499999999999998E-5     -1.0641609170636783E-14  -4.911987277623573E-13   -4.77453280749897E-12    -1.0379206228100582E-11  -2.45248440962958E-11    -3.351818661525701E-11   -3.550704898823055E-11   -4.389108957304887E-12   2.9517791980528766E-11   4.255937289244735E-11    1.9584445039668053E-13
2.3E-5                    -2.1770237805564795E-14  -8.951166280016043E-13   -7.690568621914288E-12   -1.3822332907730458E-11  -2.4973804667736138E-11  -3.083513060991396E-11   -2.000372736605525E-11   2.39677544704394E-11     6.743228295944116E-11    8.557245286575888E-11    3.5498548849708116E-13
2.35E-5                   -4.9459496908687495E-14  -1.5053110393948934E-12  -1.1264518636994218E-11  -1.692557132914128E-11   -2.3863098487251674E-11  -2.350194687745319E-11   -4.04523646079798E-13    5.7108921198629634E-11   1.129877631906175E-10    1.4426135627915837E-10   6.378653100830345E-13
2.4E-5                    -9.722566902566667E-14   -2.3227230982488294E-12  -1.3953471348686812E-11  -1.907245829721822E-11   -2.1301097665662492E-11  -1.194123840981622E-11   2.5477915105104144E-11   9.905167938281412E-11    1.7200734411323498E-10   2.243477353351349E-10    1.0606808982032821E-12
2.45E-5                   -1.6452720600112686E-13  -3.4191357630475244E-12  -1.4184950514585512E-11  -1.962852706884499E-11   -1.6748131101072204E-11  3.3892036126408216E-12   5.978686934644842E-11    1.538488264357606E-10    2.4878397829598683E-10   3.2246978727773916E-10   1.6305935646924162E-12
2.4999999999999998E-5     -2.60893331563602E-13    -4.947136294915751E-12   -1.1827412568517005E-11  -1.805043383767032E-11   -9.331061384090673E-12   2.4088119876595343E-11   1.0336470521028062E-10   2.229069296685859E-10    3.4174667843640425E-10   4.312939161781776E-10    2.417659850146977E-12
2.55E-5                   -4.2199509649699276E-13  -6.953840271575526E-12   -8.47924014003256E-12    -1.4044740673369939E-11  1.6516536034840995E-12   5.279377476085618E-11    1.555339406827326E-10    3.0395629720108443E-10   4.44922773651069E-10     5.4651317138423E-10      3.572445576865216E-12
2.6E-5                    -7.059213490206743E-13   -9.151976498409841E-12   -5.946087763134594E-12   -7.606289169253186E-12   1.658394211555295E-11    8.997774054809335E-11    2.1497105341928032E-10   3.921060479265152E-10    5.521217729565096E-10    6.668530154165223E-10    5.1972048432340124E-12
2.65E-5                   -1.164448924709246E-12   -1.1002909081785767E-11  -4.25776228183005E-12    1.1852287599751518E-12   3.5524079030361735E-11   1.3233796424888313E-10   2.80476850802157E-10     4.821250558012462E-10    6.581615433057901E-10    7.893147844455865E-10    7.153356669591521E-12
2.7E-5                    -1.817631086611216E-12   -1.2206615290361194E-11  -1.1964052342160536E-12  1.2485178590961725E-11   5.793677102142721E-11    1.7522369910299667E-10   3.508300074161935E-10    5.69970819440555E-10     7.576103336937349E-10    9.069398182723284E-10    9.029025789315308E-12
2.7499999999999998E-5     -2.668395336818105E-12   -1.3093932977175587E-11  6.173452857586523E-12    2.6758001564050924E-11   8.25477943168469E-11     2.1709878645803316E-10   4.2434171397441375E-10   6.52355566618096E-10     8.449708646728373E-10    1.0108606903196465E-9    1.0376061113493019E-11
2.8E-5                    -3.750859963263501E-12   -1.423324748762822E-11   1.9308569717480246E-11   4.428737672000621E-11    1.0803720643428419E-10   2.61091914913898E-10     4.987664858834005E-10    7.256898312865137E-10    9.161839871393298E-10    1.0932415885020556E-9    1.1024134373690558E-11
2.8499999999999998E-5     -5.150538454523162E-12   -1.533802391228263E-11   3.698108737430046E-11    6.433285679751465E-11    1.3421451609797033E-10   3.111860909560861E-10    5.71079513113495E-10     7.861552845267215E-10    9.682594741681083E-10    1.1483477271348495E-9    1.112879358748199E-11
2.9E-5                    -6.941882672680277E-12   -1.463747340592865E-11   5.574099252423379E-11    8.483231752506492E-11    1.6216285843726506E-10   3.6665016376661113E-10   6.367291244166444E-10    8.300211750326531E-10    9.968003771253343E-10    1.170925666963758E-9     1.0836111090388382E-11
2.95E-5                   -9.07280675818562E-12    -9.805821448041926E-12   7.17476883043708E-11     1.03420472523554E-10     1.9258838967321226E-10   4.206899112496956E-10    6.893027457099832E-10    8.524421723929913E-10    9.940918711665487E-10    1.1526465861039746E-9    9.860084561279156E-12
2.9999999999999997E-5     -1.129775704095074E-11   7.108161055493362E-14    8.307627136217202E-11    1.1915738111132498E-10   2.2387311013347164E-10   4.6456061296782945E-10   7.215927319568083E-10    8.457500621485267E-10    9.489248979150493E-10    1.0801047988706335E-9    7.427281584219822E-12
3.05E-5                   -1.3227503950243753E-11  1.352207154014685E-11    9.106750791272209E-11    1.3312370726281498E-10   2.5225450216872753E-10   4.924229139904918E-10    7.272858945940174E-10    7.997949765325385E-10    8.477448134853818E-10    9.37894086317367E-10     2.7276142156717246E-12
3.1E-5                    -1.4455995563395816E-11  2.8068169217487357E-11   9.93398036112659E-11     1.4687144740412508E-10   2.7438869823426105E-10   5.023869018718037E-10    7.014184669763136E-10    7.043641950196084E-10    6.775818691880991E-10    7.145455924378684E-10    -4.498657386037281E-12
3.15E-5                   -1.4665894892958155E-11  4.275817748891705E-11    1.1065214764296835E-10   1.6016056182713747E-10   2.8946543143077254E-10   4.941228289148385E-10    6.390689202380065E-10    5.512234809422843E-10    4.3034008268531114E-10   4.050857197615409E-10    -1.3792102155676327E-11
3.2E-5                    -1.3657648624954893E-11  5.911488408633477E-11    1.2405744553820796E-10   1.7048189079787868E-10   2.980545630136499E-10    4.661850186227705E-10    5.339893297571224E-10    3.3447278917544274E-10   1.0489613934702186E-10   8.653249146407002E-12    -2.4423955270554458E-11
3.25E-5                   -1.1314206848683624E-11  7.930454795508318E-11    1.35099165093128E-10     1.748913596110226E-10    2.9862364699921076E-10   4.147329359121532E-10    3.7916678807949353E-10   5.029742520636908E-11    -2.9557171724642933E-10  -4.741606174006953E-10   -3.6085527110115897E-11
3.2999999999999996E-5     -7.527654201696522E-12   1.0344537424372977E-10   1.390692060595278E-10    1.719408267530705E-10    2.8581247830973056E-10   3.335287263780453E-10    1.691110701423867E-10    -3.026168756262236E-10   -7.678584510650944E-10   -1.0412929305201488E-9   -4.9164364894796385E-11
3.35E-5                   -2.1084337274320377E-12  1.289471205629045E-10    1.3415305689911966E-10   1.6146675772317105E-10   2.5286575668461234E-10   2.1515431772029423E-10   -9.833709694869672E-11   -7.22280926596586E-10    -1.3094376711285218E-9   -1.6884093328862965E-9   -6.426867683149561E-11
3.4E-5                    5.270186861160187E-12    1.524048173529759E-10    1.2133361957307836E-10   1.4270958098058444E-10   1.958348157872926E-10    5.343427868938726E-11    -4.2215686890810534E-10  -1.203268726426973E-9    -1.9154782450150915E-9   -2.4084161789277905E-9   -8.136505981324507E-11
3.45E-5                   1.501609611177526E-11    1.7174656762046367E-10   1.0141019318742052E-10   1.1318777540474391E-10   1.151287901395356E-10    -1.5404208654489473E-10  -7.994551477822369E-10   -1.7373699414769745E-9   -2.576180116883347E-9    -3.1896141120882162E-9   -9.938018377030162E-11
3.5E-5                    2.744461482139792E-11    1.8642455617779072E-10   7.254246736074811E-11    6.959855839204999E-11    1.3142027782535261E-11   -4.04925513148757E-10    -1.226295579310586E-9    -2.3138624820561034E-9   -3.2761242687928315E-9   -4.013064158536995E-9    -1.167867991648466E-10
3.5499999999999996E-5     4.260442937990369E-11    1.9601480938339546E-10   3.092533008220678E-11    9.549708905010731E-12    -1.0905163648004157E-10  -6.930983903869098E-10   -1.6972890174531792E-9   -2.918581852047637E-9    -3.993969730673346E-9    -4.852250601457968E-9    -1.3265770232360103E-10
3.6E-5                    6.024283771601605E-11    1.9921651126230176E-10   -2.635311437715331E-11   -6.761864954443404E-11   -2.5251892657669924E-10  -1.0106195551965397E-9   -2.2038810652953413E-9   -3.532622517777194E-9    -4.701824026086704E-9    -5.674605091570617E-9    -1.4698590604795027E-10
3.65E-5                   7.991448018084992E-11    1.9413348925286647E-10   -9.934131185482157E-11   -1.6104352701125208E-10  -4.185147210067713E-10   -1.3493151390855544E-9   -2.7318210349375263E-9   -4.131938487592227E-9    -5.365642551509716E-9    -6.441137441282452E-9    -1.5972632269324126E-10
3.7E-5                    1.0110030494909311E-10   1.7886789799922882E-10   -1.857598841448673E-10   -2.6860125249359E-10     -6.060255314497276E-10   -1.7013977819145215E-9   -3.259668617184284E-9    -4.687696720116068E-9    -5.946885759133229E-9    -7.10451941118503E-9     -1.6950285442211036E-10
3.75E-5                   1.232465486635282E-10    1.514682957630574E-10    -2.828003331974173E-10   -3.8703048077197977E-10  -8.107521498742242E-10   -2.0589764070109136E-9   -3.760455047949465E-9    -5.1666001416711324E-9   -6.403950460544021E-9    -7.610697088836695E-9    -1.734752450922272E-10
3.7999999999999995E-5     1.4579090789647569E-10   1.0970348896146916E-10   -3.8803466924576314E-10  -5.125526686266109E-10   -1.0256823523002863E-9   -2.412320227597926E-9    -4.205644959756536E-9    -5.5316530262941325E-9   -6.6931050752078315E-9   -7.905295355308299E-9    -1.6861828076217892E-10
3.85E-5                   1.682439924797555E-10    5.1502306326286346E-11   -4.988156943469252E-10   -6.41770382534208E-10    -1.2422698576396812E-9   -2.7471658119076575E-9   -4.567505009362151E-9    -5.744410168686973E-9    -6.7705550085908616E-9   -7.939177609992045E-9    -1.5303389105973978E-10
3.9E-5                    1.9016714776671846E-10   -2.4368198602787727E-11  -6.112542049408294E-10   -7.715166266382046E-10   -1.4512003479823568E-9   -3.0426109111409077E-9   -4.817756239774124E-9    -5.768140938951202E-9    -6.5961007563560614E-9   -7.668679084361137E-9    -1.259187768093263E-10
3.95E-5                   2.1078391374317254E-10   -1.1853688547696564E-10  -7.19987473280139E-10    -8.972093070136235E-10   -1.6422930875082078E-9   -3.2718064673422508E-9   -4.92522373239332E-9     -5.569960006750074E-9    -6.136025573299835E-9    -7.053568198530597E-9    -8.644906884610095E-11
3.9999999999999996E-5     2.2832342752655747E-10   -2.3203533915548567E-10  -8.189311923414121E-10   -1.0112748713517376E-9   -1.8039147755785344E-9   -3.40610185988964E-9     -4.856474394884051E-9    -5.1210198710566465E-9   -5.3628913810363335E-9   -6.0584226227833874E-9   -3.3067683792148714E-11
4.0499999999999995E-5     2.3972261298409063E-10   -3.6637276575268763E-10  -9.022954350058862E-10   -1.1034775218674462E-9   -1.9228410167847497E-9   -3.4204189050856513E-9   -4.579611975330614E-9    -4.396015700930988E-9    -4.253604380592201E-9    -4.657487073231285E-9    3.596751480985359E-11
4.1E-5                    2.4125680698660616E-10   -5.216855391306889E-10   -9.649168439159454E-10   -1.1630210793725432E-9   -1.985104108888075E-9    -3.2962817165762195E-9   -4.068011773244474E-9    -3.3740484647872442E-9   -2.789858732703946E-9    -2.8378996902466106E-9   1.2146465924602137E-10
4.15E-5                   2.2983117660431657E-10   -6.944113461944484E-10   -1.001424804565609E-9    -1.1806051228988614E-9   -1.977308515136614E-9    -3.0205303720176394E-9   -3.3018984444324304E-9   -2.0416132639658413E-9   -9.628881365832746E-10   -5.98998991054547E-10    2.2284034437787804E-10
4.2E-5                    2.03891093252532E-10     -8.768914830929761E-10   -1.0047751974738184E-9   -1.1490374570556515E-9   -1.887466765669948E-9    -2.5810766848333127E-9   -2.2687743168206027E-9   -3.9636928523330724E-10  1.2202938605320667E-9    2.047990882134537E-9     3.3861500122425266E-10
4.2499999999999996E-5     1.6314246677587482E-10   -1.0592815164854124E-9   -9.65579364380698E-10    -1.0625453671212428E-9   -1.7051203335613817E-9   -1.9638519736850428E-9   -9.644256553919336E-10   1.5503807097216393E-9    3.733319023720135E-9     5.0752921151723275E-9    4.670403976127815E-10
4.2999999999999995E-5     1.0733989882027569E-10   -1.2316130764378734E-9   -8.733443786139396E-10   -9.158254604930366E-10   -1.421324407635972E-9    -1.1550214505561121E-9   6.055994990848596E-10    3.7728873599040855E-9    6.5303596230373E-9       8.431431726607806E-9     6.060246994368313E-10
4.35E-5                   3.5191893732966095E-11   -1.3840061197187E-9      -7.191063784768997E-10   -7.037593251862365E-10   -1.0290255575433604E-9   -1.4830410564518206E-10  2.4252074742082713E-9    6.230306568452962E-9     9.547416358198259E-9     1.203851757975125E-8     7.524078862897486E-10
4.4E-5                    -5.576482561696107E-11   -1.5055737515296982E-9   -4.975673598584073E-10   -4.2212288652908996E-10  -5.238892354643428E-10   1.0483953776832873E-9    4.467427042457464E-9     8.865460093344819E-9     1.270389457923392E-8     1.5795957897525555E-8    9.013107986820482E-10
4.45E-5                   -1.6827845535414288E-10  -1.5841440876654441E-9   -2.073731278956811E-10   -6.888879263176052E-11   9.4475744199386E-11      2.4133231446434628E-9    6.692834117680805E-9     1.1604474680303802E-8    1.5904832966274605E-8    1.9585652709142425E-8    1.0461106471048596E-9
4.4999999999999996E-5     -3.04056110757236E-10    -1.6076155950115115E-9   1.4994126348247694E-10   3.5469742978403374E-10   8.209679539419335E-10    3.91730833950841E-9      9.046521500323932E-9     1.4358588010761976E-8    1.9042771440023528E-8    2.3274155913633527E-8    1.178950667242598E-9
4.5499999999999995E-5     -4.626607496851231E-10   -1.56545473790816E-9     5.707656941481568E-10    8.436684426985107E-10    1.6436861117732577E-9    5.5281122551837665E-9    1.1456342522923383E-8    1.7026992584062233E-8    2.1997289838904562E-8    2.6713143193264955E-8    1.291278964496372E-9
4.6E-5                    -6.410458965397336E-10   -1.448590867116221E-9    1.0492046479003355E-9    1.3890699698882883E-9    2.543815302631579E-9     7.20677858838549E-9      1.3835017607709902E-8    1.9499008030439873E-8    2.463362401263317E-8     2.9741937244021152E-8    1.3740384763561474E-9
4.65E-5                   -8.338266389677602E-10   -1.2480109882664978E-9   1.57629156371593E-9      1.977398036616011E-9     3.4968935482471412E-9    8.900192977248641E-9     1.6084873919058962E-8    2.1655961379499288E-8    2.6805532885448643E-8    3.2192966786855364E-8    1.4175736619209997E-9
4.7E-5                    -1.0341097359594189E-9   -9.540402765888961E-10   2.139231251049906E-9     2.590179622172912E-9     4.4742168290488805E-9    1.0539412156508666E-8    1.810157076380755E-8     2.3374275882144173E-8    2.83649475443898E-8      3.389829860996286E-8     1.411639191644174E-9
4.7499999999999996E-5     -1.2344979732523026E-9   -5.576041212506998E-10   2.7208092345369516E-9    3.2045184194226333E-9    5.442913600350893E-9     1.204673798243447E-8     1.977556517667345E-8     2.453000637551856E-8     2.917380204965821E-8     3.469601745774905E-8     1.3458115004552053E-9
4.8E-5                    -1.4277871635161935E-9   -5.274548629866541E-11   3.2991843931357078E-9    3.794388638009477E-9     6.364850868611148E-9     1.334436191069823E-8     2.0993848645577447E-8    2.5004150436777653E-8    2.9111133298092514E-8    3.443711749513312E-8     1.2102337289395902E-9
4.85E-5                   -1.6069662370193952E-9   5.612559042039297E-10    3.848538768350305E-9     4.331416768301926E-9     7.196191968036036E-9     1.4356660101856203E-8    2.1644592814533675E-8    2.4688722775200382E-8    2.8074344521881445E-8    3.299373473859622E-8     9.963819417443804E-10