% Model:              analysis.mph
% Version:            COMSOL 6.0.0.405
% Date:               Jul 21 2023, 11:05
% Dimension:          1
% Nodes:              10001
% Expressions:        11
% Description:        Point graph
% Time (s)                Displacement field, Y component Displacement field, Y component Displacement field, Y component Displacement field, Y component Displacement field, Y component Displacement field, Y component Displacement field, Y component Displacement field, Y component Displacement field, Y component Displacement field, Y component Displacement field, Y component
0                         0                        0                        0                        0                        0                        0                        0                        0                        0                        0                        0
1.0E-6                    1.28465438151094E-43     1.1218900469088417E-43   2.2823852884318995E-44   2.5400785581391838E-45   3.883044301514512E-46    8.105142769531472E-47    1.2091714933936254E-47   1.9030209827760305E-48   1.408445773591634E-49    5.387269502721941E-51    9.940794272807145E-52
2.0E-6                    -4.635928947187597E-43   -1.004278126284351E-42   -1.8614858627343443E-43  2.4607891874462837E-45   1.3553780741056053E-45   -4.0618500520560084E-46  -1.1923539136356056E-46  -1.9922477624519164E-47  -1.5666375018660666E-48  -6.866831101311384E-50   -1.082574800883982E-50
3.0E-6                    -1.0659479040152537E-41  -2.705663271031042E-43   -3.249449534765363E-43   -4.465969229785441E-43   -1.2413279818001858E-43  -1.2704944834468102E-44  -1.4793452823584196E-45  -9.327482089999137E-47   -1.7474563506132314E-48  -2.6835502926523584E-49  2.7129427299611286E-50
4.0E-6                    8.798039783087322E-41    3.3310337806148437E-41   8.154960821242853E-42    3.1373016925113574E-42   9.136570348219668E-43    1.1363699654031553E-43   1.7448101387272397E-44   1.5026140128808143E-45   6.2281763604507765E-47   4.377191781451395E-48    6.273616089254111E-50
4.9999999999999996E-6     -2.550264633990107E-40   -1.7761199060534091E-40  -4.0155970279612844E-41  -9.413151173376429E-42   -2.7175661916863276E-42  -4.225873983927883E-43   -7.610156377186933E-44   -8.201515869456957E-45   -3.9990595709894245E-46  -2.70668803837385E-47    -7.822315571145583E-49
6.0E-6                    -9.322284267908234E-42   3.596554118350504E-40    8.083887241819135E-41    6.981325991243821E-42    9.459720303282105E-43    6.020784043853607E-43    1.3101506755699846E-43   2.3431369056152126E-44   1.4641446677308878E-45   1.041048360503013E-46    3.394921548937726E-48
7.0E-6                    1.871883498732021E-39    3.237527614138798E-40    6.691959800504634E-41    3.9129801710735374E-41   1.7740250608898772E-41   1.1134745523953317E-42   1.7162318233328558E-43   -2.2389184686069009E-44  -2.9189676461979126E-45  -2.3202575963330184E-46  -9.512604806420822E-48
8.0E-6                    -3.039679062284395E-39   -3.268795099952551E-39   -7.61010691451256E-40    -1.2344601812323182E-40  -4.654236329670126E-41   -6.631039990436997E-42   -1.307589472612645E-42   -1.0616102911890727E-43  -1.1894347170638153E-45  -2.29508012418045E-47    1.731973500615432E-47
9.0E-6                    -6.664169932156095E-39   5.0804489871016015E-39   1.3675861063478036E-39   9.720703435681896E-41    -1.671132311133357E-41   1.0171533857355583E-41   2.1284680943236706E-42   5.25097708963041E-43     2.95834682667235E-44     2.2516097524028686E-45   1.8199121173364333E-48
9.999999999999999E-6      2.1200388140599498E-38   8.092783306869401E-39    1.638838299770298E-39    2.554418064301708E-40    2.706507767156807E-40    1.1521620533621964E-41   2.2857714162304986E-42   -6.913021088786908E-43   -8.165012999134729E-44   -6.620695021080313E-45   -1.6553556039276038E-46
1.1E-5                    1.970167450892226E-38    -3.746787546620417E-38   -1.0069778480190621E-38  -1.0214073465205762E-39  -2.1819602655622414E-40  -7.668261511665348E-41   -1.5022841463742604E-41  -2.163650997355259E-42   -1.1506139707392902E-44  -1.0338589299638305E-45  5.664627781377847E-46
1.2E-5                    -1.1000291989858255E-37  1.3133749685429174E-38   6.19068807583814E-39     1.2309024939462235E-39   -9.950814975982627E-40   7.765279392086041E-41    1.6021366489932235E-41   8.251464600266153E-42    5.752844251857693E-43    4.690459795805287E-44    -2.9108446429370044E-46
1.3E-5                    -4.485695240979038E-38   1.460603997628247E-37    3.913060526645052E-38    3.285385653959695E-39    1.4379586177748016E-39   2.7481402212485756E-40   4.633544605403879E-41    1.685025765086955E-42    -9.163696929856385E-43   -6.771328694710078E-44   -3.268633282936232E-45
1.4E-5                    4.987381223486813E-37    -1.8639598655807535E-37  -6.378335101069278E-38   -1.1259479533812374E-38  2.8981381687399994E-39   -6.788058939434352E-40   -1.4529303005951842E-40  -4.330107483813573E-41   -2.003212375518603E-42   -1.7342182983266737E-43  7.409035155961246E-45
1.4999999999999999E-5     -1.5727505047398705E-38  -4.234892699404706E-37   -1.0664536065163355E-37  -4.8776188607730605E-39  -5.895715376386184E-39   -6.885004287071585E-40   -5.807938613384139E-41   2.2139439723873909E-41   7.260564399318514E-42    5.3473610554615E-43      7.596471328474166E-45
1.6E-5                    -1.9654672140282126E-36  8.827317514572001E-37    3.034534508225754E-37    5.032949401412743E-38    -7.064762595686563E-39   3.2943726008768126E-39   7.406619638199559E-40    1.57120080306302E-40     3.344572799875593E-42    3.3950188611552926E-43   -4.319219610852065E-44
1.7E-5                    9.545921068870897E-37    1.1237710692526777E-36   2.187944210778875E-37    -4.188371597459606E-39   2.2373691988423993E-38   1.5213070103156403E-39   -1.3264749045110674E-40  -1.2696979191786569E-40  -3.726019511724563E-41   -2.6606677424495308E-42  2.6528594607868558E-45
1.8E-5                    6.829880410453105E-36    -2.917377191024473E-36   -1.0928217357860969E-36  -1.689907319548389E-37   1.6185279875505286E-38   -1.3253760658024652E-38  -3.092485569597202E-39   -4.147875576653995E-40   4.8673574499882256E-42   3.639942874027978E-43    1.5727927794358094E-43
1.8999999999999998E-5     -6.706362118343192E-36   -3.360342358962133E-36   -3.254911694230499E-37   5.350715211121015E-38    -9.133154363962266E-38   -4.6036898426477935E-39  7.045291714929602E-40    3.752391104318364E-40    1.5805345596738916E-40   1.0620543112188177E-41   -7.819117928844592E-44
1.9999999999999998E-5     -2.2204450662637852E-35  7.362918697605309E-36    3.429160313315699E-36    4.845013207575112E-37    -6.000012311219581E-38   4.956169932484057E-38    1.1393497261298219E-38   5.845733430281861E-40    -5.329825011134599E-41   -6.977477858684146E-42   -3.940392181023275E-43
2.1E-5                    3.205495313329456E-35    1.1762619526192553E-35   3.002080660586665E-37    -2.2895989705609698E-37  3.6446940064917224E-37   2.380272758606713E-38    2.085284769018409E-40    -7.213237054263E-40      -5.994709810057642E-40   -3.7751832009737845E-41  2.7475454725798565E-43
2.2E-5                    7.303164073272435E-35    -1.269784857587992E-35   -1.0125899176000661E-35  -1.3059036405913425E-36  3.6624779693649333E-37   -1.7344131800620892E-37  -3.6786996209717683E-38  1.4668760304489073E-39   1.7715947924845408E-40   3.9931035670059925E-41   4.750067268585301E-43
2.3E-5                    -1.1903495776869483E-34  -4.146818274325431E-35   -5.7080858651361005E-37  7.528828189670148E-37    -1.1981655299851255E-36  -1.353446749825617E-37   -1.4978670966026086E-38  1.6756782558726382E-39   2.0613310451508452E-39   1.2840933365075544E-40   -5.765120876032362E-43
2.4E-5                    -2.4963357622374585E-34  1.4181029102606553E-36   2.900532899978876E-35    3.615179777648762E-36    -1.981641850217582E-36   5.410660590849914E-37    1.0228289397333006E-37   -1.4624243176015747E-38  -2.0985987306450953E-40  -1.6329963460659721E-40  1.686483416701136E-42
2.4999999999999998E-5     3.4585171154396317E-34   1.2955877656324129E-34   6.489588694362287E-36    -1.861137766760272E-36   2.7731675909881913E-36   6.4326184068084585E-37   8.906977509151456E-38    -9.899803444562073E-39   -6.357468425309289E-39   -4.324478291899419E-40   1.9790251101281912E-42
2.6E-5                    8.370353604438283E-34    1.0335306851683404E-34   -7.86250992355143E-35    -1.041310056912891E-35   8.01075937768551E-36     -1.4366292381793312E-36  -2.4652216427298495E-37  6.212037756701599E-38    -9.429849389705348E-40   5.160445502192574E-40    -1.425570738648605E-41
2.7E-5                    -7.357107696366957E-34   -3.3564871346661447E-34  -4.5443371956445313E-35  2.1391495135020972E-36   -2.8877367507887936E-36  -2.44518041401305E-36    -3.5508239552795472E-37  5.523103085203298E-38    1.760056166781216E-38    1.3993887275568431E-39   -1.5504861663532163E-41
2.8E-5                    -2.5338226224389E-33     -5.436876510102372E-34   1.8877233042328556E-34   2.8568868726778736E-35   -2.421582928054798E-35   3.247082588542498E-36    5.338700107795847E-37    -1.8219365845301797E-37  6.818317940403578E-39    -1.2136147055305455E-39  5.548979238164786E-41
2.9E-5                    8.489678574826576E-34    6.717032182052944E-34    2.1106236063933214E-34   7.637666673709447E-36    -8.343879494947077E-36   7.741561542579092E-36    1.2077599861744944E-36   -2.0695152559609362E-37  -4.563255648287008E-38   -4.0120229006472476E-39  9.80384175528016E-41
2.9999999999999997E-5     6.530479402961255E-33    1.9175161335702153E-33   -3.6253909426014776E-34  -6.63685207285461E-35    5.52274135740108E-35     -6.722435116043113E-36   -1.03029003087804E-36    4.318676670184645E-37    -2.7244608777791307E-38  1.8638182845435332E-39   -1.2629586296077337E-40
3.1E-5                    1.1120731456074705E-33   -8.193996039150554E-34   -7.3413464781764436E-34  -5.569607800286046E-35   5.506195014198458E-35    -2.255571760540003E-35   -3.9223445627994036E-36  5.4265518391803225E-37   1.1979465373681892E-37   9.173513829889386E-39    -4.329760862389328E-40
3.2E-5                    -1.3832030139095578E-32  -5.394190677476795E-33   4.256988682647219E-34    1.151055102500545E-34    -9.265975144802143E-35   1.3336732650201174E-35   1.1884831085209135E-36   -1.0709294632271784E-36  1.0101801348228312E-37   -1.4603386921791239E-39  5.352105788692836E-41
3.2999999999999996E-5     -9.319769134142999E-33   -5.998275171864609E-34   2.0082340444103704E-33   1.9073748126627073E-34   -1.7863252290122889E-34  6.71039875386156E-35     1.2068922141255624E-35   -1.2300991649706704E-36  -3.240307051464182E-37   -1.4265022164305807E-38  1.3934861471214641E-39
3.4E-5                    2.3243912707672974E-32   1.2687734818629097E-32   3.3396045608614807E-34   -1.1024331618869764E-34  9.357089343975588E-35    -1.6061221253678878E-35  3.5754919972842594E-36   3.305606625047266E-36    -4.097414066527829E-37   4.530474901601544E-39    9.22115038149996E-40
3.5E-5                    3.0452578343781696E-32   7.497026265839078E-33    -4.319487848852147E-33   -4.367444218735912E-34   4.345365493278354E-34    -1.9964780835882213E-34  -3.17258129479016E-35    3.921620178830944E-36    7.940115023351357E-37    9.289572909593922E-39    -3.36219751100155E-39
3.6E-5                    -2.8047542473579033E-32  -2.5103647959873945E-32  -3.729578790458292E-33   -8.43088769740168E-35    6.486484162495432E-35    -5.695289205595376E-35   -3.153044512137734E-35   -9.785675101448568E-36   1.6208099844733004E-36   -4.78251188207188E-38    -4.730841720676362E-39
3.7E-5                    -7.203280560716279E-32   -2.8827196528534864E-32  6.69105882614166E-33     6.903774558302008E-34    -8.610714721915019E-34   5.156781791115606E-34    6.04275558526157E-35     -1.662383830421358E-35   -1.329566283284058E-36   9.167526799354434E-40    6.276100304806788E-39
3.7999999999999995E-5     1.0806090689678395E-32   3.988973292435E-32       1.281123614147044E-32    5.671089896133886E-34    -6.853291201212504E-34   4.905409434709573E-34    1.25011094355367E-34     1.9207182242937037E-35   -5.366613137628762E-36   2.5009867716843932E-37   1.5074375462974817E-38
3.9E-5                    1.3611864025527183E-31   8.176757513998074E-32    -4.072546840967539E-33   -6.926327214333326E-34   1.2960204337000909E-33   -9.64544467268891E-34    -4.813066867683686E-35   5.861427791993071E-35    -1.1355201770181544E-37  1.2091393468685058E-37   -1.0103577110217045E-38
3.9999999999999996E-5     6.411874955175454E-32    -3.937244742321813E-32   -2.90724012164398E-32    -1.1683054514999759E-33  2.309613158422471E-33    -1.910453337454732E-33   -3.247009703046009E-34   -6.646742763820821E-36   1.3682352508300448E-35   -8.034154926955047E-37   -4.0506366776708357E-38
4.1E-5                    -1.972285305043625E-31   -1.9013538919283565E-31  -1.5856731573167888E-32  3.2661503861680203E-34   -8.485767330104167E-34   7.789235613602066E-34    -1.5419476718016351E-34  -1.4394730311138882E-34  1.014741660995313E-35    -9.106655476995702E-37   1.717283522041597E-38
4.2E-5                    -2.4442198261302137E-31  -3.349552045190915E-32   4.230133805059064E-32    1.498573541609862E-33    -5.2182042859578494E-33  4.873610512960636E-33    5.504340120475341E-34    -9.466940888880038E-35   -2.4818748919982734E-35  1.6728180151424416E-36   1.1078758959368455E-37
4.2999999999999995E-5     1.593615330618549E-31    3.5590579783996143E-31   6.717369582011595E-32    -9.866102201679233E-35   -2.6859234115996807E-33  2.2256559504424845E-33   7.4024799194794866E-34   2.219673792857369E-34    -4.072901996935146E-35   3.554164208201034E-36    -2.3688199765842297E-38
4.4E-5                    5.229639790261265E-31    3.0156990919294485E-31   -1.5563266543940875E-32  -1.838915420710242E-33   7.615751973868662E-33    -8.216922637847263E-33   -4.495527212497717E-34   3.401330551985813E-34    2.474570182697463E-35    -1.7575315901768455E-36  -3.2109855574167696E-37
4.4999999999999996E-5     1.463787701241389E-31    -4.636857044716238E-31   -1.3449298896217063E-31  6.331515700996445E-34    1.1828606703456182E-32   -1.1086588845528028E-32  -1.6480139272800636E-33  -1.479704514382114E-34   1.0162267641973421E-34   -9.595167908442673E-36   -5.230439618920085E-38
4.6E-5                    -7.051096196954987E-31   -8.993648315554365E-31   -1.047807841177707E-31   4.1209227800568325E-33   -3.128134917916585E-33   6.584738907638241E-33    -4.4873657501300126E-34  -6.265662643384666E-34   1.8344437037362482E-35   -2.3839388257677735E-36  8.76835885564874E-37
4.7E-5                    -7.940792852263226E-31   1.380323429743921E-31    1.2308145602604815E-31   -9.378967736351623E-35   -2.4346189916453798E-32  2.58295518679903E-32     2.292349060218654E-33    -1.1877601869006122E-34  -1.850146679692082E-34   1.9421694468357388E-35   6.001081005231205E-37
4.8E-5                    3.947763506262533E-31    1.6780215887394863E-30   3.021140086014086E-31    -9.891135657041071E-33   -1.7925927529943663E-32  9.67348167264341E-33     2.099715533397889E-33    7.567034994987834E-34    -1.4710170487026933E-34  1.7715486320631485E-35   -1.9741170297071436E-36
4.9E-5                    1.469057154531902E-30    1.1745429964874228E-30   1.1989223533899034E-31   -7.78730185520488E-33    2.491828071833974E-32    -3.6469197460196495E-32  -2.1555600707705406E-33  2.107551456056881E-34    2.5824335684977967E-34   -2.871313573745401E-35   -2.7336860173147366E-36
4.9999999999999996E-5     6.558205382706294E-31    -1.7137554438622977E-30  -3.5383189021716067E-31  1.3551997907407298E-32   5.571816574950602E-32    -4.6844635341411793E-32  -3.9682920190440885E-33  -1.1685103111356854E-33  4.12288378725824E-34     -5.469337170169027E-35   3.133120854825024E-36
5.1E-5                    -1.470615838197042E-30   -3.391706843397794E-30   -5.8049137474697665E-31  2.7721154977353877E-32   1.4726939119020586E-32   1.9352574211109527E-32   1.766323960647272E-33    -1.9977134118964243E-35  -2.5995579785572586E-34  2.1072267278910954E-35   8.591249717694701E-36
5.2E-5                    -2.0688122738390184E-30  -5.505827587275198E-31   -1.0741257122972685E-31  1.4962749853222371E-33   -7.664264387663321E-32   9.035769459203802E-32    7.14030131311827E-33     3.405037188584575E-33    -9.098582452588804E-34   1.2120500413667023E-34   -1.4590733964462124E-36
5.3E-5                    2.741340939946733E-31    4.4486962499880385E-30   7.602813714212322E-31    -4.704874817733008E-32   -1.039231467484824E-31   4.915195842043333E-32    -3.5686766991539393E-34  2.0345777043925574E-33   4.8370342816574936E-36   4.2585852727982373E-35   -2.0348973625537376E-35
5.4E-5                    2.910352640459413E-30    5.1972057485283635E-30   1.0479255290876548E-30   -4.8288038148723986E-32  1.0228983380250325E-32   -9.03554137213707E-32    -1.4451753858935079E-32  -7.192289295914233E-33   1.767087022898131E-33    -1.9864306359210384E-34  -1.1172698840294738E-35
5.4999999999999995E-5     1.957371971512085E-30    -7.779320168396387E-31   1.1908071657820108E-31   2.834726838921866E-32    1.6992953195691508E-31   -1.5172415449544255E-31  -1.0000589321077031E-32  -1.1495071250163663E-32  1.0850815420650094E-33   -2.2023447123664526E-34  3.531644285574137E-35
5.6E-5                    -2.213805923170836E-30   -7.761452433649506E-30   -1.3839967977001931E-30  1.025981202223872E-31    1.6970030396742841E-31   -1.3238477225071513E-32  1.9636642131370587E-32   4.249703722839058E-33    -2.7191398613810637E-33  1.9871267764318716E-34   4.9089323199855E-35
5.6999999999999996E-5     -4.378062257555563E-30   -7.528157540137366E-30   -1.8640077218619572E-30  5.917975200586704E-32    -5.805425250897294E-32   1.9140692139901542E-31   3.7648130782978096E-32   2.7096253740120127E-32   -4.038332519916053E-33   5.325252102608413E-34    -3.4650388970630204E-35
5.8E-5                    -8.05785270210543E-31    1.3184902229744815E-30   -3.444448040868706E-31   -8.894861546843479E-32   -3.026395875651173E-31   1.990621331221992E-31    3.7856251451703996E-33   1.9230733655755695E-32   2.085798603661121E-33    4.843354717773433E-35    -1.2253541744277618E-34
5.9E-5                    5.070347659792833E-30    1.1041880848021398E-29   2.1894028204378802E-30   -1.7175829717893884E-31  -2.6514347183365806E-31  -4.6144547812101464E-32  -5.88057641015457E-32    -2.78325673879936E-32    9.108790102207744E-33    -8.58292629118245E-34    -2.7617110148512323E-35
5.9999999999999995E-5     5.790841233801608E-30    1.1876820983552158E-29   3.2703066682921416E-30   -5.4499435014095E-32     9.35477797512751E-32     -2.8596178226281563E-31  -6.994407287368878E-32   -5.8925809098849E-32     3.7017730193722434E-33   -6.991008086395104E-34   2.0546896632857024E-34
6.1E-5                    -9.593732441475002E-31   1.2588452716033493E-30   1.2075983934762425E-30   1.6750539091220679E-31   4.52426003216664E-31     -2.383526834116889E-31   1.0094973864643308E-32   -1.4890568757375603E-32  -1.281015328602882E-32   8.931599016030656E-34    2.0784756683075597E-34
6.2E-5                    -8.430771063237812E-30   -1.3163303022660675E-29  -2.8568302138768517E-30  2.4289991601768533E-31   4.26088724692612E-31     7.049580195267501E-32    1.0997595902411964E-31   7.121893571220006E-32    -1.727088328483276E-32   1.7523422749597997E-33   -1.9797404973094194E-34
6.3E-5                    -7.769309372807194E-30   -1.911962123790592E-29   -5.3550031667383734E-30  5.36052682897264E-32     -3.9820092990776877E-32  3.3750018188824305E-31   1.1187411794079776E-31   8.824694259913006E-32    6.0348504385379244E-33   -2.148086844505695E-34   -5.009219359649618E-34
6.4E-5                    1.7999613449367144E-30   -9.60582683504253E-30    -3.349045413558692E-30   -2.2673789531625103E-31  -5.7449413236745845E-31  3.0988459669711207E-31   -1.0343149146729266E-32  -9.783736337351108E-33   3.29660690812455E-32     -2.9980846331547438E-33  -5.004775335514621E-35
6.5E-5                    1.139776644825469E-29    1.0537210087794185E-29   2.3689469282354376E-30   -3.0874126599096984E-31  -6.820898735846302E-31   1.2125456434174436E-32   -1.4775392262992323E-31  -1.1686610807581402E-31  2.023409014456746E-32    -1.7979957760352662E-33  7.60416319233664E-34
6.599999999999999E-5      1.1357397413996085E-29   2.681686203796536E-29    7.338348851047986E-30    -9.736348604702404E-32   -1.795045051026957E-31   -3.208320321131281E-31   -1.6592877596090816E-31  -9.336049120695468E-32   -3.1218098821942265E-32  3.68718975715177E-33     6.140757771382374E-34
6.7E-5                    7.725590334395364E-31    2.5101523580777697E-29   7.073284491112945E-30    2.1373213175189063E-31   5.893117248323522E-31    -4.433205289744672E-31   -3.997662144947041E-32   4.468512359339342E-32    -5.827259169142329E-32   5.977472002515664E-33    -7.421744480558577E-34
6.8E-5                    -1.1838450668538608E-29  2.7697714917481303E-30   1.0626449663947931E-30   3.4629920399476732E-31   9.749534623013153E-31    -2.3996609388369544E-31  1.3083429519757886E-31   1.3134412749989067E-31   -1.0280317335800527E-32  -1.2979784499071652E-33  -1.4086269064614329E-33
6.9E-5                    -1.624996299003443E-29   -2.6925825936444326E-29  -6.632365236773323E-30   1.989294847036056E-31    5.672868837546445E-31    2.036431363005548E-31    2.2012335324632994E-31   6.464545224630522E-32    6.980826096059143E-32    -1.1387152525443443E-32  2.4624897217158975E-34
7.0E-5                    -8.686008209330053E-30   -4.2049566714659205E-29  -1.061986501797247E-29   -9.013426245998388E-32   -3.844056718140848E-31   5.9338976225980035E-31   1.6443000403573457E-31   -6.118394588249673E-32   8.043707474179929E-32    -8.462564319747744E-33   2.3175894993985172E-33
7.099999999999999E-5      5.807923740289892E-30    -2.823372770809696E-29   -8.138847421321732E-30   -2.9307362382095572E-31  -1.1178131774921066E-30  5.792980295769728E-31    -1.6146218284580785E-32  -9.144053569421464E-32   -1.0114008453930949E-32  1.073242567472873E-32    1.0165363323307916E-33
7.2E-5                    1.7186059941359095E-29   7.880556481763616E-30    -5.159128429779493E-31   -2.797285094158183E-31   -1.0064191174296767E-30  6.319929329198066E-32    -2.301686081975864E-31   -1.8788129472637834E-32  -1.0762821374873157E-31  2.4640946764796005E-32   -3.1531147298251956E-33
7.3E-5                    1.7457575191824316E-29   4.168781781643004E-29    8.255431763439353E-30    -9.036922873850098E-32   -1.081505250572062E-31   -6.171839913253138E-31   -3.3430703402151636E-31  3.283574146551932E-32    -9.681856466521289E-32   8.391747292793745E-33    -3.8393278547726965E-33
7.4E-5                    6.816088667245397E-30    5.002899147199163E-29    1.3870554756311798E-29   1.2031241706683507E-31   9.02229455449722E-31     -9.052564849961959E-31   -2.0316771992706614E-31  7.562239209651697E-33    1.8849989686147675E-32   -2.9346254711011485E-32  2.6030105271802923E-33
7.5E-5                    -6.1674033681088935E-30  2.917774807481214E-29    1.3341814348330318E-29   1.991363494153997E-31    1.2942579648306781E-30   -5.063320869853881E-31   1.4121274211890423E-31   -9.648631999756565E-33   1.2188410083187502E-31   -4.4028101927040946E-32  8.676512430642122E-33
7.599999999999999E-5      -1.2364773321384867E-29  -5.430203831697709E-30   5.868442934741474E-30    1.049731863787876E-31    7.936203376260584E-31    3.36476931170291E-31     4.632583299240984E-31    4.73183784586694E-32     1.1745936037678704E-31   -4.721537316577108E-33   2.8736148268133192E-33
7.7E-5                    -1.1490281238400038E-29  -3.4401436621158446E-29  -6.449333537785067E-30   -4.3139309062329873E-32  -2.909108049058838E-31   1.0289815339978942E-30   4.5785074840764E-31      9.136329488741607E-32    2.1858556769786728E-32   5.726406896744853E-32    -1.2045363002976241E-32
7.8E-5                    -1.1860058278938298E-29  -4.732111377577803E-29   -1.8430271077725914E-29  -4.5271426205125763E-32  -1.2654482354848781E-30  1.0575197474978747E-30   4.5597182900191365E-32   -6.3602332495332746E-34  -8.754731105140524E-32   6.940611619659999E-32    -1.587549609862526E-32
7.9E-5                    -1.8688469089045233E-29  -4.386070666103168E-29   -2.3497272590438953E-29  1.770418304581893E-31    -1.4278243299333677E-30  3.149693292231552E-31    -4.738388704135876E-31   -1.7469096842348776E-31  -1.5396966406271035E-31  5.056647596030088E-34    4.158107849334727E-33
7.999999999999999E-5      -2.4576924553186213E-29  -2.8139212698411446E-29  -1.7516698313289793E-29  4.219910980805877E-31    -5.367888124605025E-31   -7.97733929026046E-31    -6.378820192705459E-31   -2.1122898978785977E-31  -1.426718597720448E-31   -8.900092704387256E-32   2.8757834522113634E-32
8.099999999999999E-5      -1.5905927693495218E-29  -4.686897316349774E-30   -2.3667379203600295E-30  3.154243815270667E-31    8.69167696252687E-31     -1.509311823373313E-30   -2.5528460444855566E-31  1.3479277822131786E-32   -1.9806968767062637E-32  -1.005436075021077E-31   2.2258117008475427E-32
8.2E-5                    1.04868544998097E-29     2.1747566566629772E-29   1.444874295580796E-29    -3.1703257391018597E-31  1.7100253866018882E-30   -1.1462546142309046E-30  3.753686288987069E-31    3.331632047212673E-31    1.8930076680323227E-31   -6.0010916756550805E-33  -1.9676961858043034E-32
8.3E-5                    4.0287737422474306E-29   4.511828318258856E-29    2.495995151108243E-29    -1.1469053645660168E-30  1.2209968614439388E-30   2.156229325975719E-31    7.141140927059669E-31    4.166362512884249E-31    3.31625191279231E-31     1.117503656315226E-31    -5.159824425713804E-32
8.4E-5                    5.315667766335741E-29    5.87880715771894E-29     2.644125114106911E-29    -1.477452670995853E-30   -2.5185874811783805E-31  1.5627308829408429E-30   4.63734298476465E-31     9.700455629809158E-32    2.1648211461314667E-31   1.3768512928379836E-31   -2.6183126003874465E-32
8.499999999999999E-5      3.895102711795405E-29    5.815320968980623E-29    2.1966495712651468E-29   -8.047730637118913E-31   -1.4339433804418878E-30  1.7168686768755403E-30   -1.8138586445432884E-31  -4.285694184262743E-31   -1.574205785619823E-31   3.85952713480531E-32     4.123289292675272E-32
8.599999999999999E-5      1.027059971879499E-30    4.129335467415369E-29    1.5083985661936125E-29   6.509756478843277E-31    -1.3268092937243654E-30  4.895502829293106E-31    -7.2734361155926025E-31  -7.268236853399305E-31   -5.0577157733015496E-31  -1.0665715921459022E-31  7.725764621461181E-32
8.7E-5                    -5.302763234214012E-29   5.742625239948913E-30    4.589235876570322E-30    1.9629036466265568E-30   -2.465350195283077E-31   -1.0652857187361332E-30  -7.799820707651381E-31   -4.8192080732632785E-31  -4.796867968398491E-31   -1.796348979666308E-31   3.164612598361132E-32
8.8E-5                    -1.1878371293180284E-28  -5.226424943528482E-29   -1.418635405268287E-29   2.1538249056566497E-30   5.365150605274674E-31    -1.6818063285479226E-30  -2.907723806656702E-31   2.172882635956848E-31    -2.1537503587480093E-32  -1.1594748259915574E-31  -5.857519408099201E-32
8.9E-5                    -1.9303833077420996E-28  -1.3045701550919047E-28  -4.243295540429744E-29   9.902305316422295E-31    2.5200558979597686E-31   -1.0387105843132481E-30  4.699493156051398E-31    9.020040450789248E-31    5.266590901446949E-31    5.303790565135078E-32    -1.0286925162960802E-31
8.999999999999999E-5      -2.6956613518097334E-28  -2.143134529870369E-28   -7.303555347625496E-29   -8.05326832002205E-31    -5.275494985972025E-31   1.9864958326050725E-31   1.082216723160019E-30    1.0606704373379286E-30   7.048264442649989E-31    2.163328739540931E-31    -5.186456961381339E-32
9.099999999999999E-5      -3.4049471196396123E-28  -2.857010545407387E-28   -9.363085357034147E-29   -2.17019484357994E-30    -7.030024691281085E-31   1.1931581267634577E-30   1.1585198601904518E-30   5.215592939001026E-31    3.417307021425597E-31    2.409646796621667E-31    5.428561846951934E-32
9.2E-5                    -4.005230396762109E-28   -3.3910296106422022E-28  -9.443251234517565E-29   -2.580428971143732E-30   -7.079287017002546E-32   1.4401953549796678E-30   5.278989319812396E-31    -4.292777268694627E-31   -2.9521182790569594E-31  6.513551473676163E-32    1.2740859972884772E-31
9.3E-5                    -4.471643216850291E-28   -3.825573896495575E-28   -7.282224852218615E-29   -2.337636179185295E-30   5.099173941606718E-31    6.723220831735005E-31    -6.010953265093257E-31   -1.2539199420776013E-30  -7.2498016712716365E-31  -2.1723229076186857E-31  1.0507299637660287E-31
9.4E-5                    -4.784916515572794E-28   -4.214775362500488E-28   -3.175080426786064E-29   -2.0596675853207537E-30  3.8205186353200236E-31   -1.0541595775830359E-30  -1.642422453812986E-30   -1.4752024771603824E-30  -6.355931435130567E-31   -3.810813368133834E-31   -9.509251709291652E-33
9.499999999999999E-5      -4.955338623035893E-28   -4.513555011838132E-28   2.3156729556157199E-29   -2.0465350576173672E-30  3.216951685740571E-33    -2.8574718581315264E-30  -1.9216345908574684E-30  -8.886254198023768E-31   -1.0980393671204973E-31  -2.463041698417163E-31   -1.4679252669192486E-31
9.6E-5                    -5.080146494892346E-28   -4.714405442825022E-28   8.294622647677045E-29    -2.212643323104669E-30   1.8283895337704525E-31   -3.110105964873546E-30   -1.12826561061093E-30    3.2888881623782966E-31   4.592159558694434E-31    1.2869620830806186E-31   -1.978548823457568E-31
9.7E-5                    -5.316899451431136E-28   -4.94933847895123E-28    1.3358117328464423E-28   -2.4370771474500074E-30  6.094068804316368E-31    -7.6733603490422305E-31  4.038518727431875E-31    1.5883287603742786E-30   6.73024940409313E-31     4.521797937823251E-31    -8.480050003628548E-32