% Model:              Untitled.mph
% Version:            COMSOL 6.0.0.405
% Date:               Jul 16 2025, 21:21
% Dimension:          1
% Nodes:              401
% Expressions:        11
% Description:        Point graph
% Time (s)                Displacement field, Y component Displacement field, Y component Displacement field, Y component Displacement field, Y component Displacement field, Y component Displacement field, Y component Displacement field, Y component Displacement field, Y component Displacement field, Y component Displacement field, Y component Displacement field, Y component
0                         1.818427316451226E-34    3.341083077724744E-32    8.085714890241026E-32    9.492131743286935E-32    3.9919487830562624E-32   -1.5030352611971115E-33  -2.875937755324417E-34   -5.635357352709986E-34   -2.9237095601023554E-31  -4.001196243848903E-31   -4.461172940507763E-31
5.0E-7                    -1.713780205776295E-26   9.216209955994336E-25    -1.0562912121655397E-22  -2.8085760745016154E-22  8.593039132197004E-23    3.247280385546574E-23    4.024913082032023E-26    -2.3377988206467567E-25  -2.448515429524216E-23   3.423599210488469E-23    5.676454954905485E-23
1.0E-6                    -7.154646903553102E-26   -5.435007552795705E-23   -5.609445213887243E-22   -7.891284546830936E-22   -2.103819729584586E-22   1.3161062517291845E-22   -4.0307072089991384E-26  2.948805507563438E-24    5.749246599943099E-22    8.221941283357111E-23    -9.808589947865009E-23
1.5E-6                    5.504818046092155E-25    2.5482802387002126E-22   8.656991782859736E-22    7.480167842049604E-21    -7.673773628967483E-22   5.814330730495047E-22    -3.734145924732452E-26   -1.0669231119321776E-23  -2.31980074769046E-21    -1.041393655333731E-21   -4.99240324040722E-22
2.0E-6                    -2.0142832662781773E-24  -4.785761210109541E-22   3.911361477243933E-21    1.1266025997881528E-20   3.2805939924520494E-21   -3.687874831371769E-23   2.0434478969878352E-25   6.737281716132229E-24    3.6411677538460696E-21   6.551122954936347E-21    4.737591539069064E-21
2.4999999999999998E-6     4.5450352655553336E-24   -1.1064273831488824E-22  8.281234883273139E-21    -4.718728096185661E-20   2.4182386943089113E-20   -3.979391076084562E-21   -1.6393139237009943E-25  5.1038853509636525E-23   -4.173979817068576E-22   -1.5814924365648557E-20  -1.1331588244141252E-20
3.0E-6                    -3.181259415094601E-24   1.6541774635345042E-21   -1.3934436574477268E-20  -1.4927295653889028E-19  -1.6610418104239265E-20  -7.73321527203689E-21    -2.7087506773120714E-25  -1.0056540928325176E-22  3.1742646067399464E-22   -8.153186027309961E-21   1.104922066006207E-20
3.5E-6                    -1.1346940177609158E-23  2.0122918881847376E-22   -9.461183674843821E-20   7.128709449165957E-20    -2.1299208564628894E-19  2.023040580602109E-21    -1.4295908840943663E-25  -3.5538053488638825E-23  -3.235729655849458E-20   5.563058999537793E-20    -1.0005379205859748E-20
4.0E-6                    2.04390318181682E-23     -7.985634972498945E-21   -3.430246494165704E-20   1.0627085677450985E-18   -1.1244886623968477E-19  3.531230544458352E-20    2.3513457698798143E-24   1.4381210524788032E-22   6.5213742084501454E-21   6.456455956247075E-20    -9.327570389972538E-20
4.5E-6                    -1.212623487622694E-23   -3.520709071941034E-21   3.962572259081952E-19    1.317771274815499E-18    8.457354887214241E-19    2.042752425694244E-20    -8.209860573604576E-26   -3.8077932941266183E-22  5.273915550557055E-19    -1.699707168676176E-20   3.270239204964447E-19
4.9999999999999996E-6     1.2538848169517485E-22   5.830089287228737E-20    6.836859229336514E-19    -3.826428220343941E-18   1.3523887252098228E-18   -7.135422075543547E-20   -2.896699000498883E-23   1.7193134125400377E-21   -5.4055884284880485E-19  -8.589268367313162E-19   4.975153752034513E-19
5.5E-6                    3.534351374143588E-23    2.8878456776851367E-20   -2.9803341084351195E-19  -1.2580901009584867E-17  -8.214323982898794E-19   1.5490731839276203E-19   2.2162749103472605E-23   2.063030548520128E-21    -4.231133201008394E-18   -7.039162835774545E-19   -1.516500405770299E-18
6.0E-6                    -1.6812846596944663E-21  -3.509044076746646E-19   -2.0648997894480148E-18  -8.494048988351491E-19   -4.392923878127565E-18   5.413059151458897E-19    4.1037904808312853E-22   -1.3604869491760572E-20  3.294307279261967E-18    5.1084201100946505E-18   -3.6967801704481635E-18
6.5E-6                    2.9059343914516296E-22   -4.1210991170505317E-19  -1.8869920401336935E-18  5.2391957290368033E-17   -4.664656947172688E-18   -1.0513423564187572E-18  -4.991554882937105E-22   -1.0550268832902237E-20  2.583665808338423E-17    5.296411654811434E-18    2.2859562554600786E-18
7.0E-6                    1.112846089803606E-20    1.5603869511678332E-18   -1.851042770396368E-18   8.103014771620705E-17    2.7849302104575417E-18   -4.049030539631293E-18   -3.541280248713333E-21   5.558153542229885E-20    -3.869497546917101E-18   -2.173191475131463E-17   1.8730647046499007E-17
7.499999999999999E-6      -4.333042400601468E-22   3.876729478534643E-18    1.2698497494198026E-18   -6.597364822814966E-17   1.8439399238533603E-17   1.0531365690749817E-18   3.994794308280287E-21    5.2889392982812376E-20   -1.224620958323284E-16   -3.250260443420192E-17   1.0291212781824654E-17
8.0E-6                    -5.546920633257091E-20   -3.1922036312090578E-18  5.74656871259284E-17     -3.6151656851598745E-16  2.8346747869614036E-17   1.7831178949355944E-17   2.2024409405010324E-20   -1.4298212200101163E-19  -7.686929952129986E-17   6.261672479488651E-17    -7.277983616259468E-17
8.5E-6                    -1.871044299836026E-20   -2.1264449906545075E-17  1.8517995299545377E-16   -3.202405771036538E-16   1.3394351914689841E-17   1.7100935696201363E-17   -1.843150348837514E-20   -2.229251816074774E-19   4.011934764295513E-16    1.367306082808784E-16    -1.4282105237811937E-16
9.0E-6                    2.213217042170287E-19    -1.0621378981423208E-17  1.246970771839609E-16    6.079854860678988E-16    -6.64271048511923E-18    -3.4605549779503606E-17  -1.1462453169770306E-19  4.760905119024284E-21    6.228080972494728E-16    -1.7706646580556248E-16  2.996898385334765E-17
9.499999999999999E-6      2.0404424544047087E-19   7.298460994116107E-17    -3.857909717546029E-16   1.9036840231946783E-15   -3.933366704654416E-18   -8.105710029918932E-17   3.1066291841734506E-20   1.751585506046644E-19    -7.508890812256609E-16   -6.919046964165225E-16   3.281441843305098E-16
9.999999999999999E-6      -6.759012690833833E-19   1.318422163978143E-16    -3.385361076662642E-16   1.6540699113996241E-15   -3.4946689729570825E-17  2.3329973718479066E-17   4.6029417978254855E-19   1.0788744123810253E-18   -2.7746446344408617E-15  -1.7110756552814874E-16  -7.314739653490222E-17
1.05E-5                   -1.2544858760932716E-18  -7.433841723597024E-17   2.581908840436634E-15    -1.3235263468080506E-15  2.7959742882624154E-19   2.8084650778643885E-16   7.827177577360902E-20    2.4232076679211225E-18   -8.944022770762157E-16   1.655870250054772E-15    -1.8671751558005224E-15
1.1E-5                    1.2602258394574676E-18   -4.905735414556015E-16   8.105223080945884E-15    -4.345714749587792E-15   9.387347987299346E-16    3.338237929945066E-16    -1.6883361709764047E-18  -5.905157036224002E-18   6.632009422719626E-15    9.57329069113916E-16     -4.347066950140799E-15
1.15E-5                   5.468005087179517E-18    -3.4700109676920026E-16  1.1144749482591953E-14   -6.377471233772417E-16   3.866366699380307E-15    -2.1290053433439755E-16  -1.6967559289244843E-18  -2.938680808817853E-17   9.325109659499463E-15    -7.269241992426687E-15   -6.038337291514803E-15
1.2E-5                    1.299040269217013E-18    1.1305348883651843E-15   1.2791671370436281E-14   1.6753944441018376E-14   7.256597494901129E-15    -9.070190335540508E-16   3.0344145927666425E-18   -2.1488450965501096E-17  -8.871633281928262E-15   -1.753241632599888E-14   -8.398757227383977E-15
1.2499999999999999E-5     -1.6421549259296405E-17  2.912631566576469E-15    3.6154570431121976E-14   5.0009131402065394E-14   5.4598819941905565E-15   -2.84920341433381E-17    4.7759703569296105E-18   7.519505904246502E-17    -3.862815188884953E-14   -1.2416522588478985E-14  -2.1893393907017353E-14
1.3E-5                    -2.1352505666298606E-17  1.854670340313956E-15    1.1290206434668538E-13   9.369930344989587E-14    -1.9350364531937852E-15  3.961847797684285E-15    -1.0210783636764763E-17  1.1017167435679371E-16   -3.0866700702894927E-14  3.168052164394717E-15    -6.842161237341105E-14
1.35E-5                   2.929972842776084E-17    -3.176735287134158E-15   2.4606765295054303E-13   1.3988833028927606E-13   8.624275355917447E-15    9.412338691655601E-15    -3.522446464601875E-17   -2.9729403205203085E-16  3.783461595200624E-14    -3.3680055016696624E-14  -1.6789957403231975E-13
1.4E-5                    1.0196884370904701E-16   -4.971700857061829E-15   4.3732707562911366E-13   2.0778161997419517E-13   7.993440756352775E-14    1.1096845250936785E-14   -4.214626354057628E-17   -1.0817548752536943E-15  6.850897247295616E-14    -1.8674148894701982E-13  -3.228144317251557E-13
1.45E-5                   3.898072452346559E-17    1.0912649215158736E-14   8.073942093859874E-13    4.017621357782074E-13    2.1721883346647358E-13   7.835296325533025E-15    -4.4648621229416496E-17  -1.152345681991156E-15   -9.553301034048413E-14   -4.028789305876787E-13   -5.638404193650673E-13
1.4999999999999999E-5     -2.324812298423905E-16   5.03064226514835E-14     1.6232078545616584E-12   9.345105620316588E-13    3.440172753832651E-13    1.402712329491273E-14    -1.588450023287098E-16   1.2813317501458759E-16   -4.160772182187793E-13   -5.834604343557E-13      -1.061263893293795E-12
1.55E-5                   -3.5081077246665173E-16  9.355830724562037E-14    3.1054500377826052E-12   2.0242217412332998E-12   4.033912341420875E-13    5.805555095423035E-14    -5.528474243608008E-16   -1.0365253508166867E-16  -6.108619026417437E-13   -9.022948339919208E-13   -2.1372207184702254E-12
1.6E-5                    3.25020542648582E-16     1.1374343552168828E-13   5.404110703091562E-12    3.756698719010881E-12    5.67345444038452E-13     1.6249018342565412E-13   -1.352029066283699E-15   -7.897260326676707E-15   -5.984047373033963E-13   -1.8775135002565517E-12  -4.100152790382863E-12
1.6499999999999998E-5     1.6508130204981991E-15   1.4633700855496776E-13   9.179285004113602E-12    6.258761820132228E-12    1.2424294787894888E-12   3.369212545974872E-13    -2.8258622921896315E-15  -2.563062156269233E-14   -9.051305519545882E-13   -3.8922462176744165E-12  -7.247736468480663E-12
1.7E-5                    1.858232983035229E-15    3.5082974493827563E-13   1.6034097810451487E-11   1.0287721807868799E-11   2.7212475268297786E-12   6.07913299541204E-13     -6.105713814628187E-15   -4.598618150363739E-14   -2.2860011630686095E-12  -6.9508463603337605E-12  -1.2270692031411328E-11
1.75E-5                   -6.417068171572598E-16   9.532650503700161E-13    2.7267936983038114E-11   1.746179239049753E-11    4.981650864042214E-12    1.0413540033781799E-12   -1.4076678826683764E-14  -6.191886786653333E-14   -4.982092688160072E-12   -1.1394691111764566E-11  -2.0259228771670745E-11
1.8E-5                    -2.7257367947957416E-15  2.060690785690477E-12    4.147351575048782E-11    2.9054510584053937E-11   8.23468001268901E-12     1.7185401112842129E-12   -3.1826405926220943E-14  -9.668795330287499E-14   -8.781152956012862E-12   -1.8351742440423674E-11  -3.140623786124637E-11
1.85E-5                   4.539367394777189E-15    3.5748922853253345E-12   5.440639459615775E-11    4.3874041809486475E-11   1.362389655821489E-11    2.7872819254021916E-12   -6.74705096534754E-14    -2.2609746163756717E-13  -1.3764656091203473E-11  -2.8334766138375696E-11  -4.365469679377095E-11
1.8999999999999998E-5     2.6257402202614844E-14   5.502280489473115E-12    6.278928723036734E-11    5.7860326595477534E-11   2.245999416777774E-11    4.728582208333846E-12    -1.3641775211560406E-13  -5.449784004786105E-13   -2.0414484484749653E-11  -3.959312433187059E-11   -5.381885934366812E-11
1.95E-5                   5.1067546898212523E-14   8.546150420334157E-12    6.773167780060526E-11    6.70626517183827E-11     3.387429932187322E-11    8.556432077456796E-12    -2.715608098895567E-13   -1.0840816597678623E-12  -2.8945628853961726E-11  -4.934128168820398E-11   -6.056819160888539E-11
1.9999999999999998E-5     6.150293747645792E-14    1.424200305421697E-11    7.236851239035205E-11    7.128985234462587E-11    4.380301534239021E-11    1.5309906882446553E-11   -5.362473991583068E-13   -1.8033778254062712E-12  -3.904254373989444E-11   -5.661312722062525E-11   -6.503880854130463E-11
2.05E-5                   7.565299134936626E-14    2.396074985564865E-11    7.615686178683476E-11    7.3608021270242E-11      4.80749329362743E-11     2.486879896925286E-11    -1.0294520390355748E-12  -2.785479253323279E-12   -4.989748862929352E-11   -6.196977848259158E-11   -6.77138093083298E-11
2.1E-5                    1.730423942120812E-13    3.7289515414609734E-11   7.412151559684637E-11    7.540900120438178E-11    4.7266153443902215E-11   3.5469009550339474E-11   -1.874265168938257E-12   -4.4656244495745725E-12  -5.947043630501297E-11   -6.418067286418035E-11   -6.63622446832319E-11
2.1499999999999997E-5     4.4703249884509E-13      5.1448163029151066E-11   6.267692540143783E-11    7.288677456217218E-11    4.696250571601735E-11    4.520607927957496E-11    -3.2030053003710877E-12  -7.459629920418553E-12   -6.415571330365477E-11   -5.9977240533957E-11     -5.862531355176532E-11
2.2E-5                    9.220435073727042E-13    6.276630397908567E-11    4.3386640698174207E-11   5.951050998017864E-11    5.1294436394523754E-11   5.431133542253156E-11    -5.172131319275513E-12   -1.187625503692069E-11   -6.114157131045265E-11   -4.8457940352502785E-11  -4.5024506928407053E-11
2.2499999999999998E-5     1.5673346877608982E-12   6.904892362086227E-11    1.8703679364230738E-11   3.1545161013953395E-11   5.659819396947194E-11    6.487281454818072E-11    -7.988300599644662E-12   -1.6802268236789443E-11  -5.162054498874544E-11   -3.3036233566662424E-11  -2.6964119086292195E-11
2.3E-5                    2.4570399765965464E-12   7.04376037745825E-11     -1.3810305292247113E-11  -9.631994124911936E-12   5.355516779587933E-11    7.683161917486192E-11    -1.1806626248166065E-11  -2.07987370619267E-11    -3.990350903342955E-11   -1.6563989310793316E-11  -2.6472783943212677E-12
2.35E-5                   3.928404399540198E-12    6.781896959052783E-11    -5.959574661429541E-11   -5.983437963244904E-11   3.6193989357022845E-11   8.435624986379806E-11    -1.6381307174461362E-11  -2.3139599771393447E-11  -2.8329020501670977E-11  3.766809285862466E-12    3.233022527993274E-11
2.4E-5                    6.542034970710318E-12    6.03971202966438E-11     -1.200433926928273E-10   -1.1551154979115808E-10  7.138805186665329E-12    7.830406992724114E-11    -2.0688308432531334E-11  -2.4400692648323404E-11  -1.4151790607275443E-11  3.417409939680781E-11    8.046439997365411E-11
2.45E-5                   1.0814493304090975E-11   4.49642724650991E-11     -1.9075493234218204E-10  -1.758054811155257E-10   -2.6912979742682515E-11  5.431471944948367E-11    -2.3075860244081667E-11  -2.552999837528836E-11   8.003878441792253E-12    7.804744612806219E-11    1.406915301317155E-10
2.4999999999999998E-5     1.6847378539606552E-11   1.7937736566674183E-11   -2.677037089691964E-10   -2.4294348024233144E-10  -6.324456272877546E-11   1.8079586945535748E-11   -2.2180800058031985E-11  -2.6288286985872634E-11  4.201734938679464E-11    1.3413716841853437E-10   2.110199680527715E-10
2.55E-5                   2.401336761465088E-11    -2.1272122774999463E-11  -3.5243105095668547E-10  -3.203487308688458E-10   -1.0513593455358808E-10  -1.9785892016070514E-11  -1.7937261123111514E-11  -2.4812646073300987E-11  8.906565891085091E-11    1.9976121397085437E-10   2.9026320391030705E-10
2.6E-5                    3.089925775429471E-11    -6.874571108419999E-11   -4.491451876540997E-10   -4.087902434349216E-10   -1.5712214592416745E-10  -5.552853808927467E-11   -1.1614299697169399E-11  -1.8968516854422688E-11  1.484742734679093E-10    2.7295060100470816E-10   3.7697601477361525E-10
2.65E-5                   3.5674075631739216E-11   -1.187783016301068E-10   -5.579750369224098E-10   -5.043580634055992E-10   -2.203651774472848E-10   -9.762362688435299E-11   -4.702859223407837E-12   -8.294406989074536E-12   2.181368764000236E-10    3.5162816613388615E-10   4.693514460262028E-10
2.7E-5                    3.673956068180888E-11    -1.6933230127125654E-10  -6.730923339870835E-10   -6.013174882192358E-10   -2.924306194336557E-10   -1.5806278918575705E-10  2.299872673393623E-12    5.450487010921115E-12    2.9511964199873467E-10   4.3355564977107974E-10   5.668849515790299E-10
2.7499999999999998E-5     3.321207621670065E-11    -2.2489577078202947E-10  -7.868850463331869E-10   -6.963117249805475E-10   -3.6973219280983763E-10  -2.380435242013592E-10   1.0106554928654597E-11   2.0013821140793426E-11   3.773098237306984E-10    5.180765199788117E-10    6.692831977516649E-10
2.8E-5                    2.4996573472083453E-11   -2.928826528261952E-10   -8.936087603407648E-10   -7.876667697039284E-10   -4.497676827784326E-10   -3.245458961212168E-10   1.9866405132473906E-11   3.525182591268467E-11    4.640918230617549E-10    6.057388036280774E-10    7.718988243926745E-10
2.8499999999999998E-5     1.2664077876774647E-11   -3.7640141974494437E-10  -9.88253008661305E-10    -8.702141427995032E-10   -5.318729271542511E-10   -4.0280416033521176E-10  3.2276022763592565E-11   5.391718705129478E-11    5.546606549559401E-10    6.943309403828117E-10    8.644151887180539E-10
2.9E-5                    -2.7424049668209303E-12  -4.706475257444791E-10   -1.0637102367687081E-9   -9.326430016039656E-10   -6.154445296146759E-10   -4.709501660699153E-10   4.72800639250307E-11     7.947466535876296E-11    6.462119002135722E-10    7.759920733846644E-10    9.364938008916328E-10
2.95E-5                   -2.02385458805353E-11    -5.663325740400498E-10   -1.1105464018198287E-9   -9.610665057792382E-10   -6.960031149313673E-10   -5.39972975027141E-10    6.44353940602647E-11     1.1294368736607988E-10   7.340917544019323E-10    8.396472797535855E-10    9.833194346095004E-10
2.9999999999999997E-5     -3.972788765345092E-11   -6.557317200254188E-10   -1.1184524530781483E-9   -9.445564114412047E-10   -7.631952763422829E-10   -6.192396109930421E-10   8.358291031506553E-11    1.5191400951848627E-10   8.123968089511367E-10    8.763082036295661E-10    1.0027202785980753E-9
3.05E-5                   -6.234871084253278E-11   -7.347258521390534E-10   -1.0764567106460405E-9   -8.77144538580149E-10    -8.044006589642939E-10   -7.041696763063681E-10   1.052811766540027E-10    1.9249439213116332E-10   8.733518987412429E-10    8.814786955133713E-10    9.875039335196674E-10
3.1E-5                    -8.977938455486281E-11   -7.998604417457017E-10   -9.730434593645192E-10   -7.561956263841649E-10   -8.106191310520232E-10   -7.782714493169002E-10   1.3050900970076248E-10   2.3191891672406346E-10   9.071941547096738E-10    8.527881510570236E-10    9.241319584746409E-10
3.15E-5                   -1.2311183278297306E-10  -8.451255614764743E-10   -7.98856910179739E-10    -5.802119464269916E-10   -7.774599150587019E-10   -8.240257318273789E-10   1.5962723518074466E-10   2.6932957882735995E-10   9.043003051478587E-10    7.857506852538698E-10    7.999174059302292E-10
3.2E-5                    -1.622732541232789E-10   -8.620058000977334E-10   -5.495776840530902E-10   -3.4715753582571614E-10  -7.00675524209314E-10    -8.297449549089435E-10   1.912729534655137E-10    3.045680874493616E-10    8.571549226311201E-10    6.711624474914977E-10    6.087861503437735E-10
3.25E-5                   -2.06047399898012E-10    -8.413224568756938E-10   -2.240453541656719E-10   -5.2943368516103736E-11  -5.737051888035562E-10   -7.891718182486425E-10   2.2208757908667218E-10   3.3664685100319953E-10   7.589931772870742E-10    4.961048816496203E-10    3.4849045245043513E-10
3.2999999999999996E-5     -2.521678644910236E-10   -7.739979854084887E-10   1.8065581076262144E-10   3.082921974044158E-10    -3.9150567201664536E-10  -6.999124983616263E-10   2.4765488512902303E-10   3.6327756790686546E-10   6.01042183258416E-10     2.4888742286771136E-10   1.501461901654436E-11
3.35E-5                   -2.975229400360724E-10   -6.510961401475528E-10   6.695572511847216E-10    7.40017090130896E-10     -1.5496858894736574E-10  -5.631755586942444E-10   2.641346522081049E-10    3.8140233569274185E-10   3.734209385884633E-10    -7.471539480960247E-11   -3.968998215025245E-10
3.4E-5                    -3.3878527637996336E-10  -4.6527959688388805E-10  1.243981769681095E-9     1.2379347794018538E-9    1.3129798917033192E-10   -3.8085201637663545E-10  2.694911255389572E-10    3.878381573086212E-10    7.019659998401335E-11    -4.692481661252719E-10   -8.88249779876112E-10
3.45E-5                   -3.7295930648774097E-10  -2.1314955637123402E-10  1.8973212340081964E-9    1.789849801843751E-9     4.656938753013453E-10    -1.4976265602012656E-10  2.6343935988115195E-10   3.7947938890236254E-10   -3.070920071986647E-10   -9.240459003189447E-10   -1.4533046144147754E-9
3.5E-5                    -3.969782893641298E-10   1.0457950861538819E-10   2.6173696616640216E-9    2.3816844166561073E-9    8.521972986725932E-10    1.3981254156742428E-10   2.462251710166154E-10    3.531768077015917E-10    -7.517663540711148E-10   -1.430108720428014E-9    -2.082289135222441E-9
3.5499999999999996E-5     -4.066679233628573E-10   4.859037272298313E-10    3.389199731149108E-9     3.0010280581490018E-9    1.295123044855582E-9     4.973576384925516E-10    2.1728908517938946E-10   3.055009285615042E-10    -1.2570982270858296E-9   -1.9823658700154154E-9   -2.7634045099873576E-9
3.6E-5                    -3.9648970037143455E-10  9.301309485694391E-10    4.19192875250108E-9      3.631409690469448E-9     1.7911615148492909E-9    9.232746748645961E-10    1.7477523221540083E-10   2.323711889488954E-10    -1.8177345269212524E-9   -2.5756804367947176E-9   -3.48060106857069E-9
3.65E-5                   -3.6068938567066845E-10  1.4369475313441644E-9    4.9939054635182856E-9    4.244586227893475E-9     2.325423716860683E-9     1.4062389035144139E-9    1.1585975665304872E-10   1.2884137656919772E-10   -2.425990417241933E-9    -3.1993355421290887E-9   -4.210862736749127E-9
3.7E-5                    -2.948671013275557E-10   2.0025592094370004E-9    5.7550755576930925E-9    4.803799558372989E-9     2.873191877947163E-9     1.927059547722772E-9     3.7216438333847175E-11   -1.0156191208701784E-11  -3.0675383942207714E-9   -3.8344839522977E-9      -4.925067282845495E-9
3.75E-5                   -1.9676783225455597E-10  2.6161698787342072E-9    6.434958672709969E-9     5.276100212832231E-9     3.4046688814692795E-9    2.463666329048473E-9     -6.467591318913721E-11   -1.878401801676636E-10   -3.7205086252069337E-9   -4.454392186520186E-9    -5.5902567692292525E-9
3.7999999999999995E-5     -6.618611750286525E-11   3.2586589786627943E-9    6.996116088000073E-9     5.636794024417576E-9     3.889320898245794E-9     2.994109543253727E-9     -1.9299949284852686E-10  -4.035683249680916E-10   -4.357383478380956E-9    -5.025483691362422E-9    -6.169397844123666E-9
3.85E-5                   9.554956795996678E-11    3.902773695807319E-9     7.399492031640029E-9     5.8585798693611604E-9    4.297892611019531E-9     3.4976562118167264E-9    -3.495302732902735E-10   -6.524794738304679E-10   -4.94712920002242E-9     -5.509257060202996E-9    -6.620145633804856E-9
3.9E-5                    2.8638589898691103E-10   4.514103535775537E-9     7.599286987306974E-9     5.900340278535996E-9     4.602459378601117E-9     3.953614905528445E-9     -5.33434926468147E-10    -9.271142517183002E-10   -5.4565014116613445E-9   -5.865913030182844E-9    -6.8970080972057894E-9
3.95E-5                   5.044554927449452E-10    5.05365499449122E-9      7.544908372134895E-9     5.712668181846442E-9     4.776390390204761E-9     4.3377207599559715E-9    -7.406665079208765E-10   -1.2195524204592217E-9   -5.850472863643101E-9    -6.057907120464219E-9    -6.956276371446055E-9
3.9999999999999996E-5     7.482573172471824E-10    5.482373933661512E-9     7.1879175189252635E-9    5.255270741894906E-9     4.79470656532141E-9      4.618917142218339E-9     -9.642287717564942E-10   -1.5222806982802694E-9   -6.091710660443695E-9    -6.05028895694793E-9     -6.758467013940897E-9
4.0499999999999995E-5     1.0155985563108916E-9    5.765168915012498E-9     6.48681102882186E-9      4.5066340255791495E-9    4.632823416987931E-9     4.760216602273139E-9     -1.194912993070649E-9    -1.8272083577090251E-9   -6.140082240366558E-9    -5.808172496904018E-9    -6.2667133499243605E-9
4.1E-5                    1.3023173927933276E-9    5.87101664787995E-9      5.407238443647524E-9     3.4578460471787318E-9    4.263378128195578E-9     4.723539496372693E-9     -1.4220097863732252E-9   -2.123728039746872E-9    -5.95404770419667E-9     -5.295873049665068E-9    -5.445622047021759E-9
4.15E-5                   1.6022783450716745E-9    5.7690379997976286E-9    3.9219377742947656E-9    2.1022444717717103E-9    3.65613083313455E-9      4.474986022134786E-9     -1.6339249219765097E-9   -2.397465050472298E-9    -5.4940034174749015E-9   -4.480876570697938E-9    -4.264183478024172E-9
4.2E-5                    1.9082307323779303E-9    5.424571850597571E-9     2.0148091176885958E-9    4.3524634298152237E-10   2.7858038553831E-9       3.987966036847449E-9     -1.8188494177742643E-9   -2.6309284696125243E-9   -4.72546575481664E-9     -3.340198042255734E-9    -2.7010494975013195E-9
4.2499999999999996E-5     2.2112347234951226E-9    4.79955300225401E-9      -3.121012500372913E-10   -1.5353714674770946E-9   1.643556002756914E-9     3.2443396859569323E-9    -1.965293781873904E-9    -2.8057185516560525E-9   -3.621231206228594E-9    -1.8642554866956594E-9   -7.493792234215271E-10
4.2999999999999995E-5     2.4975855185191206E-9    3.858178569774725E-9     -3.034116894827543E-9    -3.780115098883877E-9    2.408979612334057E-10    2.2345746996106435E-9    -2.0620176617940896E-9   -2.904360560304425E-9    -2.1642453516256837E-9   -5.6931880529372706E-11  1.579139943885405E-9
4.35E-5                   2.7455599651725283E-9    2.5754643559692396E-9    -6.105246845458654E-9    -6.2478197772614745E-9   -1.3979135713217351E-9   9.57646887077274E-10     -2.0973482339820795E-9   -2.910058744566398E-9    -3.5197354101971727E-10  2.0652410328956806E-9    4.25179193067845E-9
4.4E-5                    2.9256672321095175E-9    9.446523628955187E-10    -9.462805197957457E-9    -8.872087122294827E-9    -3.244953415484312E-9    -5.78296255588771E-10    -2.0586240778125098E-9   -2.805032262853693E-9    1.8002368600849114E-9    4.472071363860116E-9     7.216186842398196E-9
4.45E-5                   3.0054258687298878E-9    -1.0202540658347721E-9   -1.3029887174849392E-8   -1.1575343881984315E-8   -5.267295283457935E-9    -2.3536448101673207E-9   -1.9324801136704537E-9   -2.57013676716669E-9     4.2593076239363155E-9    7.11756632202163E-9      1.0405029192337479E-8
4.4999999999999996E-5     2.9557965966323747E-9    -3.287677420392166E-9    -1.671310485535581E-8    -1.426769395160397E-8    -7.417117527164925E-9    -4.334101554232657E-9    -1.7058676747306062E-9   -2.18745699988948E-9     6.976765738968115E-9     9.939260704773429E-9     1.3739219484142984E-8
4.5499999999999995E-5     2.7552835152696853E-9    -5.813881744137654E-9    -2.039826472740241E-8    -1.6846196928755927E-8   -9.62613711813865E-9     -6.468415401729926E-9    -1.367150532112245E-9    -1.6442842149360594E-9   9.889851990719234E-9     1.2859939845331157E-8    1.7125539832732483E-8
4.6E-5                    2.3900746015682087E-9    -8.545285304901462E-9    -2.394897026434965E-8    -1.919947767100307E-8    -1.1811288445315937E-8   -8.688256146432535E-9    -9.069674499210665E-10   -9.35224161167619E-10    1.2920301325882856E-8    1.578965126075746E-8     2.0451834161433442E-8
4.65E-5                   1.8517025811735359E-9    -1.1415343457951564E-8   -2.7210674030655704E-8   -2.1214925382761775E-8   -1.38846262942331E-8     -1.0910107437426822E-8   -3.1922423536262704E-10  -6.11969804330687E-11    1.5972582963191938E-8    1.862556364343543E-8     2.358579404023765E-8
4.7E-5                    1.13489778673892E-9      -1.4338739021755272E-8   -3.001852175280819E-8    -2.278290544476058E-8    -1.5756715442928386E-8   -1.3038725436411234E-8   3.9734495867684966E-10   9.725942502032316E-10    1.8933386393630003E-8    2.125079427852354E-8     2.6379691329644E-8
4.7499999999999996E-5     2.373748870545155E-10    -1.7208191018800332E-8   -3.220554732604857E-8    -2.3797162181846284E-8   -1.733204454964386E-8    -1.4971473833577505E-8   1.2373045684233383E-9    2.1567542340211426E-9    2.167291907413929E-8     2.353637282531428E-8     2.8678439559722973E-8
4.8E-5                    -8.383276489535652E-10   -1.989749893616408E-8    -3.3609206627319416E-8   -2.415482788125145E-8    -1.850444932780382E-8    -1.6601794649764452E-8   2.187339931246697E-9     3.475023780574293E-9     2.4048636186546972E-8    2.534805838713554E-8     3.0327654138589745E-8
4.85E-5                   -2.0820760560922066E-9   -2.226987982387557E-8    -3.407635425723688E-8    -2.3759116073443406E-8   -1.9160557928427162E-8   -1.782025598340249E-8    3.226631792443164E-9     4.900704617961816E-9     2.5912078402062243E-8    2.6554347122556432E-8    3.1180516965609656E-8