% Model:              Untitled.mph
% Version:            COMSOL 6.0.0.405
% Date:               Jul 16 2025, 15:52
% Dimension:          1
% Nodes:              401
% Expressions:        11
% Description:        Point graph
% Time (s)                Displacement field, Y component Displacement field, Y component Displacement field, Y component Displacement field, Y component Displacement field, Y component Displacement field, Y component Displacement field, Y component Displacement field, Y component Displacement field, Y component Displacement field, Y component Displacement field, Y component
0                         7.107882250245177E-38    7.608164542505919E-37    1.7817428184057198E-35   1.2055912317132984E-36   2.5898501885813606E-35   1.164768172226006E-34    9.07025172600919E-35     -5.14757278073854E-36    -8.508796421773647E-34   -1.2854580087553513E-33  1.2448017158393848E-33
5.0E-7                    4.559474722976357E-29    5.384277247717326E-28    -3.5895093923588545E-28  2.2163981134831012E-27   5.263158873917852E-26    2.164169329228205E-27    3.4617436834995523E-26   -3.103027120984236E-26   2.936924906074079E-26    4.379985726492821E-25    -3.0285119746090547E-25
1.0E-6                    6.2951754198102925E-28   5.6436275621029715E-27   7.150332571363134E-26    2.763221996780144E-26    3.580928430235245E-25    8.43884375287537E-25     1.3430145316396852E-24   4.232254804528449E-25    9.941057796723205E-25    -4.014376722470218E-24   1.5899312735128053E-24
1.5E-6                    -2.3034799882976833E-27  -1.0590758054683602E-26  -3.296325381216759E-26   8.637825771869664E-26    1.340413870865786E-24    7.154503765680581E-24    1.42483810291625E-24     -1.59128067667462E-24    -2.566710794609646E-24   1.2920088854513612E-23   -7.085810806021423E-24
2.0E-6                    2.1076343035931145E-26   3.6698773802012456E-25   3.9522026701510226E-24   7.213248445407849E-24    8.40143893826654E-24     3.245595874615976E-23    -1.429748058175112E-23   -2.296726471451228E-24   -1.0206672201857325E-23  1.3622973468893677E-23   6.887914356257017E-24
2.4999999999999998E-6     1.2494414517097124E-26   -3.301145177424324E-25   -4.932372533985529E-25   1.9613033119445488E-23   9.681146233104729E-24    5.77944381260103E-23     -2.733828852906485E-23   2.938035971573915E-23    7.744788267735302E-23    -2.4223418559476927E-22  5.1205589135621325E-23
3.0E-6                    -4.4327626245655E-25     -7.15543157177161E-24    -7.282374942427561E-23   -5.960919620897017E-23   -6.405817156757002E-23   -1.7539167887032287E-22  1.894680639959143E-22    -2.2257002347578926E-23  -2.626697108824689E-23   3.8181385622081456E-22   -2.129751833487364E-22
3.5E-6                    1.0695904898474187E-25   7.00863058629657E-24     1.2408465518795477E-23   -2.3068908804604207E-22  -1.4090445070186173E-22  -1.0272317197752916E-21  4.929560266165237E-22    -1.5678122335932004E-22  -4.220472960842976E-22   1.455393578352977E-21    -2.0457423261405648E-22
4.0E-6                    4.2286348702288176E-24   6.746748788219527E-23    6.470037236864349E-22    1.4178991063204518E-22   9.74161879810291E-23     -7.12393182931547E-22    -1.4736199028462836E-21  4.523464826613237E-22    1.202165864716684E-21    -5.3475273024307895E-21  1.5365420221322624E-21
4.5E-6                    -9.916777481524864E-25   -4.982404610551055E-23   8.818131407592741E-23    1.487157893757896E-21    8.205016393524409E-22    5.159968747594171E-21    -3.835859883030784E-21   1.2261224955055752E-21   3.650863750202088E-21    -8.554398144536429E-21   -1.6660754983003857E-21
4.9999999999999996E-6     -2.715683027776813E-23   -4.390670107997954E-22   -3.691943972416591E-21   1.5397675030271784E-21   2.4075022448529007E-21   9.625907567941405E-21    1.2152030241753625E-20   5.163913322136331E-22    1.5824133099348872E-22   2.6730988418299113E-20   -1.2731387860197917E-20
5.5E-6                    1.7790590603348374E-24   1.6240350802832853E-22   -2.005977090651911E-21   -3.462146367463402E-21   1.7440682346462475E-21   -8.450491231814117E-21   3.502210281300536E-20    5.827617067729919E-21    8.213539802533464E-21    1.1013950574028001E-20   1.3696151970443476E-21
6.0E-6                    1.283537958201489E-22    2.113949445066484E-21    1.3880017359893864E-20   -1.2794960090755388E-20  -2.0306128147030714E-20  -1.720379009694617E-20   -4.2461645167512245E-20  2.9408585659309974E-20   8.229365775290808E-20    -2.367315571895957E-19   3.767720223448451E-21
6.5E-6                    4.9103439554177306E-24   8.344948627246095E-23    1.2362896844243775E-20   -1.7115414957149803E-20  -5.053890332821302E-20   7.712720263132609E-20    -2.0119518242598185E-19  9.490780723267675E-20    2.6372716481643954E-19   -3.323929070962029E-19   -1.725976946811713E-19
7.0E-6                    -4.426672404663628E-22   -6.698865224615081E-21   -2.756749682592317E-20   2.092838176010268E-20    1.3111963096274393E-19   2.0768145671036678E-19   2.330829511248909E-20    3.6827062417861826E-19   6.6594523084554425E-19   1.9864689601668503E-19   -4.0657416195514175E-19
7.499999999999999E-6      2.0527924778311404E-22   -6.0676455020768E-22     -4.511079699815142E-21   1.7141307044595134E-19   6.578927759495214E-19    2.1825839361560655E-19   1.0028478454602703E-18   1.2404061272760098E-18   2.0880357771247814E-18   -1.6239661079521985E-18  -7.834414371856465E-19
8.0E-6                    1.5961181120756607E-21   1.3732202061994486E-20   5.597978544973508E-20    2.9001810944711418E-19   1.8895308732891985E-19   4.5757938774251395E-19   1.9851858267687548E-18   3.438729347730801E-18    7.249487705873992E-18    -1.086742156119822E-17   -3.6372945514782365E-18
8.5E-6                    -2.3215466388356146E-21  -1.1625454217916957E-20  -2.114825464598931E-19   -3.205871553699574E-19   -2.9415804109857514E-18  1.427122619988816E-18    1.336766196262615E-18    1.0737796780296813E-17   2.2753812460077947E-17   -2.3873523580245518E-17  -1.1948143098304718E-17
9.0E-6                    -8.504270407175564E-21   -4.917071730831526E-21   -2.657002512026438E-19   -1.7633107019510006E-18  -2.612598051062972E-18   4.504164491561848E-18    -7.70562857649503E-19    3.721530607390343E-17    6.44877248742076E-17     -4.534690494232324E-17   -2.832734367645678E-17
9.499999999999999E-6      1.1352030159234702E-20   1.986119195388366E-19    1.7607388292375205E-18   -7.528537576528606E-19   1.4405730737589687E-17   1.7710910520087874E-17   7.276102033848575E-18    1.1392565247633733E-16   1.7495749827534599E-16   -1.526574328690509E-16   -7.662004198695847E-17
9.999999999999999E-6      5.461594283821007E-20    1.8294176644416778E-19   3.762760474897448E-18    7.043765007835364E-18    3.6100871789237995E-17   5.137264201041514E-17    6.265286520275734E-17    3.091913690397473E-16    4.702143930087989E-16    -5.07640196664528E-16    -2.355046489175461E-16
1.05E-5                   5.3290028115552066E-21   -7.937250241208264E-19   -2.159662251946581E-18   1.466669663761938E-17    1.3399223169407936E-17   1.0047943027116709E-16   2.0828657263095782E-16   8.359261810162898E-16    1.239944496558977E-15    -1.3267888751423208E-15  -6.543471113506591E-16
1.1E-5                    -2.103450726483909E-19   -1.0543919152772438E-18  -1.0784422573145268E-17  1.7912298041576946E-18   -3.2889245959114576E-17  2.0644925944571647E-16   4.491970031974456E-16    2.302581303380483E-15    3.133717257574544E-15    -3.1874095844902183E-15  -1.6658866877016746E-15
1.15E-5                   -2.424213531692735E-19   3.279731296588925E-18    8.962689959696278E-18    -2.780987273975818E-17   9.888435809952338E-17    6.389073497471655E-16    9.331619638378511E-16    6.08974292182844E-15     7.572270416781382E-15    -7.89256718008585E-15    -4.196820232372965E-15
1.2E-5                    4.915810789322601E-19    8.846343675827794E-18    6.467297717369415E-17    -3.195094999372838E-18   5.966338303745087E-16    1.9152882557393003E-15   2.5686465881977367E-15   1.5149157018899246E-14   1.766434782869054E-14    -1.9629071479702202E-14  -1.041509551733588E-14
1.2499999999999999E-5     1.4782149158192039E-18   1.457235983272812E-18    8.646227048294004E-17    1.6293824879069365E-16   1.30545394436556E-15     4.6169216675127766E-15   7.521979633768277E-15    3.6179100884907694E-14   3.9660093162956285E-14   -4.658626760516427E-14   -2.464687293246694E-14
1.3E-5                    4.507176999751712E-19    -1.712760774308532E-17   2.6967370128338874E-17   4.187549005054754E-16    2.11761296792673E-15     1.0131392098019426E-14   1.9090348177754543E-14   8.399402182690127E-14    8.479250795517907E-14    -1.040248680783216E-13   -5.580008058235338E-14
1.35E-5                   -3.3606720260661325E-18  -1.5778061127817176E-18  5.684990522503693E-17    5.322191765914941E-16    4.261510814475864E-15    2.3190840438048538E-14   4.329959448031611E-14    1.882837168147185E-13    1.7253444570463618E-13   -2.2117645062530979E-13  -1.231205274725546E-13
1.4E-5                    -4.2878478451124484E-18  8.5161376539002E-17      5.078708113077103E-16    5.088270339553094E-16    1.0944040220733324E-14   5.446161567444987E-14    9.628450225173642E-14    4.042665070856666E-13    3.361733875909316E-13    -4.566566908858332E-13   -2.6478339626533916E-13
1.45E-5                   5.412311694696073E-18    1.6444735024419704E-16   1.4477528590993007E-15   1.4371401560846767E-15   2.6042167965923534E-14   1.2251739782876972E-13   2.155808459559498E-13    8.304443314157498E-13    6.258523661229066E-13    -9.195833257947906E-13   -5.470588510142703E-13
1.4999999999999999E-5     1.9673468881116194E-17   9.404988665082581E-17    2.4064216992437276E-15   5.640094499676216E-15    5.346389314483751E-14    2.614920250768985E-13    4.677616096458844E-13    1.6329552181271322E-12   1.1011822895560457E-12   -1.777514628266959E-12   -1.0783177004303505E-12
1.55E-5                   1.9070652319081593E-17   -7.881559798231565E-18   3.1413028571911663E-15   1.469885013861387E-14    1.0344771668090919E-13   5.38952870951532E-13     9.564716011843798E-13    3.0685645258142472E-12   1.818727141770537E-12    -3.254215177523014E-12   -2.0433232230479516E-12
1.6E-5                    9.344868049458535E-18    4.126933852427504E-16    5.654513459453274E-15    2.7513857756087058E-14   2.0604172253525735E-13   1.0725318797831252E-12   1.8501497490166378E-12   5.494442903262346E-12    2.8365994413562457E-12   -5.670893913716108E-12   -3.7644700909707716E-12
1.6499999999999998E-5     4.385821844776063E-17    1.76076387582866E-15     1.5066538433564972E-14   4.570340415650498E-14    4.1527322339244804E-13   2.0362947900067506E-12   3.425827613690265E-12    9.345876438509354E-12    4.256290948183831E-12    -9.509570835430481E-12   -6.748378569532436E-12
1.7E-5                    1.6635244513557293E-16   3.490454171860378E-15    3.5391245386129684E-14   8.813307009209381E-14    7.901428373230573E-13    3.677922107612845E-12    6.076762899788008E-12    1.5044795542754384E-11   6.3064867691620435E-12   -1.5284947868603395E-11  -1.1623674867655318E-11
1.75E-5                   3.7360584543092117E-16   5.022547625483251E-15    6.368461462462486E-14    1.977166680585164E-13    1.3909818122128815E-12   6.340994212748959E-12    1.0236596482048378E-11   2.280714820823696E-11    9.432833808751174E-12    -2.3122403753423697E-11  -1.8906384727713917E-11
1.8E-5                    7.287409757760918E-16    8.49346457730706E-15     9.722097304939944E-14    4.2175533259162424E-13   2.3618737805836954E-12   1.0371471365965153E-11   1.623588507794755E-11    3.2396488493681676E-11   1.4260534630243527E-11   -3.2463268738062697E-11  -2.8674915816097236E-11
1.85E-5                   1.4164664910555276E-15   1.890848133360554E-14    1.5553275941089675E-13   7.89298023118655E-13     4.046070466704592E-12    1.5805569702915624E-11   2.41211851975143E-11     4.2970250665308414E-11   2.1274410312332204E-11   -4.237506776669477E-11   -4.036442297074883E-11
1.8999999999999998E-5     2.5345615991390838E-15   3.899543242359658E-14    2.820375413399995E-13    1.34845622068696E-12     6.895524299903706E-12    2.206587892066936E-11    3.3435789339159156E-11   5.311926106506593E-11    3.0334929753846833E-11   -5.201172484618005E-11   -5.280726288255525E-11
1.95E-5                   4.247613026774255E-15    6.770950238705601E-14    4.97242108469489E-13     2.2718129367662753E-12   1.1073935280454062E-11   2.810432358726713E-11    4.3041852618607916E-11   6.101251113769723E-11    4.049707901258367E-11    -6.026985791441775E-11   -6.439294424231602E-11
1.9999999999999998E-5     7.871845814910021E-15    1.1353453922734674E-13   7.636798833298038E-13    3.9086481864174884E-12   1.6152965067922956E-11   3.29178310146287E-11     5.1187484076988396E-11   6.456225697210508E-11    5.040046806985728E-11    -6.500400381974869E-11   -7.313415846266076E-11
2.05E-5                   1.647831754716575E-14    2.0837165277687431E-13   1.0673138353960795E-12   6.6381301528969115E-12   2.1411140993227688E-11   3.5673645563474867E-11   5.586157095264925E-11    6.184111892683807E-11    5.881260917480856E-11    -6.347048475059594E-11   -7.669923050388794E-11
2.1E-5                    3.383121465990075E-14    3.888104261087825E-13    1.5804385677139965E-12   1.0570552586696299E-11   2.6449705343234444E-11   3.519620167597047E-11    5.514604998892177E-11    5.1934863493958E-11      6.471132188641221E-11    -5.4194544949213575E-11  -7.275253242774225E-11
2.1499999999999997E-5     6.561511363800315E-14    6.551715729297505E-13    2.6892822412975318E-12   1.5363581611033137E-11   3.114436312876652E-11    2.9915307679642026E-11   4.7404139535856645E-11   3.55095071491433E-11     6.69151223333766E-11     -3.7885053869205096E-11  -5.971795415604472E-11
2.2E-5                    1.277416085364664E-13    9.854439751299212E-13    4.7619809982506144E-12   2.034276601754906E-11    3.474595149460384E-11    1.9099772345767375E-11   3.165383732744488E-11    1.3920642634483024E-11   6.373958855426913E-11    -1.586322151626346E-11   -3.747688560173832E-11
2.2499999999999998E-5     2.5538826234884844E-13   1.4380349640328726E-12   7.866059642884875E-12    2.4756059701589315E-11   3.5441058074701213E-11   3.974196909505342E-12    8.284341502497156E-12    -1.2660842765498074E-11  5.297145174475259E-11    1.1868648644950035E-11   -7.290341158467746E-12
2.3E-5                    5.01047191864296E-13     2.220382136021222E-12    1.1745645589041146E-11   2.78240972905841E-11     3.145146118160658E-11    -1.3236079167267013E-11  -2.0699846369821846E-11  -4.5655270142795256E-11  3.231280847967447E-11    4.6239884326633795E-11   2.9201440304060915E-11
2.35E-5                   9.294056254660616E-13    3.5661118523814387E-12   1.601220508705821E-11    2.8597945701550095E-11   2.257757054832686E-11    -3.144581387470508E-11   -5.272631820658399E-11   -8.608334041642837E-11   3.7066793275672447E-13   8.755064095070174E-11    7.12124266713351E-11
2.4E-5                    1.6298181583617854E-12   5.50220851594994E-12     2.017153467804332E-11    2.6061449378967716E-11   1.0055541598741188E-11   -5.124844302052831E-11   -8.621699194027021E-11   -1.3314375154578128E-10  -4.2521940996601026E-11  1.356348964258065E-10    1.1931493147074968E-10
2.45E-5                   2.727535761416962E-12    7.807336243135127E-12    2.335717062830971E-11    1.9668584345084095E-11   -5.376759124411556E-12   -7.354760822517305E-11   -1.2106632210351262E-10  -1.8614215287454375E-10  -9.483946678668505E-11   1.9119429996022087E-10   1.748668765421883E-10
2.4999999999999998E-5     4.3312716998060845E-12   1.0248757702901054E-11   2.4198843028533426E-11   9.762054002844637E-12    -2.480899404803649E-11   -9.868145443417334E-11   -1.5803105246601568E-10  -2.4713525325952043E-10  -1.553004306446677E-10   2.55362795060564E-10     2.390269326419464E-10
2.55E-5                   6.414129672238413E-12    1.2726383587544423E-11   2.1299087596005697E-11   -2.780273282498864E-12   -5.007536426213076E-11   -1.2679066049583858E-10  -1.9849336433013242E-10  -3.193633627197196E-10   -2.22951708706994E-10    3.277563402671818E-10    3.1232564180019215E-10
2.6E-5                    8.745949359983863E-12    1.4970070797057256E-11   1.4100838749384257E-11   -1.7396472249608476E-11  -8.141185954316966E-11   -1.5775731917266663E-10  -2.446787193872306E-10   -4.023080684379392E-10   -2.9550224020641844E-10  4.0614049867416E-10      3.947166609643908E-10
2.65E-5                   1.0973918113380393E-11   1.610563116278101E-11    3.3069359654594213E-12   -3.4229372691823963E-11  -1.164607816462489E-10   -1.9047771867374883E-10  -2.9856446288525345E-10  -4.897774891016886E-10   -3.690610121292352E-10   4.878757176419427E-10    4.849392947324762E-10
2.7E-5                    1.2750510859716187E-11   1.4830262440124126E-11   -9.687414541408863E-12   -5.370446543871446E-11   -1.5162938506097683E-10  -2.2310367257142204E-10  -3.592537223088023E-10   -5.737336920588056E-10   -4.4120608252623987E-10  5.700063163914491E-10    5.790290626577654E-10
2.7499999999999998E-5     1.3724374998384958E-11   1.0311776228432056E-11   -2.3883853060702168E-11  -7.589192141030876E-11   -1.8445447126833188E-10  -2.540833704666608E-10   -4.2165649557304345E-10  -6.488501750277361E-10   -5.1369074216594E-10     6.476311338991625E-10    6.70029936228867E-10
2.8E-5                    1.3431789875631831E-11   2.9008834482133057E-12   -3.923247446498119E-11   -1.0016193292595054E-10  -2.1497735164894815E-10  -2.821706253205391E-10   -4.786542474575112E-10   -7.123415535193912E-10   -5.898747815877025E-10   7.139255227882685E-10    7.503626899181925E-10
2.8499999999999998E-5     1.1347112354306695E-11   -6.230246500996118E-12   -5.611982916672739E-11   -1.2512400258005035E-10  -2.451631523371422E-10   -3.055969597664907E-10   -5.246431085659505E-10   -7.602863410233741E-10   -6.684106733876171E-10   7.626235657325946E-10    8.144246411439185E-10
2.9E-5                    7.1690263285223545E-12   -1.6175015601987034E-11  -7.437312108118785E-11   -1.4904821081489414E-10  -2.767987540521048E-10   -3.220769025233932E-10   -5.564294263402581E-10   -7.855722361296953E-10   -7.400884773057871E-10   7.892344808889283E-10    8.578196855199876E-10
2.95E-5                   1.0303484834945977E-12   -2.687543549373402E-11   -9.283078964016297E-11   -1.7104907715147497E-10  -3.0925720259099315E-10  -3.293675099685728E-10   -5.70778531197296E-10    -7.795906651597715E-10   -7.91485603291419E-10    7.888824726594587E-10    8.743189029278504E-10
2.9999999999999997E-5     -6.67973481286178E-12    -3.8629935160622786E-11  -1.0989763806066576E-10  -1.9211562328383011E-10  -3.386815617129586E-10   -3.25118133121228E-10    -5.620695066989378E-10   -7.352811217734848E-10   -8.118640748238974E-10   7.538365056733826E-10    8.552893011135731E-10
3.05E-5                   -1.571492435842785E-11   -5.127617803934237E-11   -1.2451436588314915E-10  -2.1427597487207576E-10  -3.592962689546574E-10   -3.065794040387643E-10   -5.231435712504449E-10   -6.48328801595718E-10    -7.972331523552022E-10   6.742937486191E-10       7.923619631350236E-10
3.1E-5                    -2.6114198704572164E-11  -6.40758026593521E-11    -1.366266469108397E-10   -2.380182624028271E-10   -3.6598911850131577E-10  -2.7101012315130284E-10  -4.482929940763325E-10   -5.157037442959112E-10   -7.48573355422342E-10    5.417005022750715E-10    6.789041254708958E-10
3.15E-5                   -3.792611661528305E-11   -7.634474439295593E-11   -1.4673982185478257E-10  -2.606457909878199E-10   -3.561011718606818E-10   -2.1581924771752763E-10  -3.347605391992417E-10   -3.33235186923764E-10    -6.657044967876416E-10   3.512286876454234E-10    5.086178942635355E-10
3.2E-5                    -5.0892227433737884E-11  -8.799044941211754E-11   -1.5495740926868385E-10  -2.775040689549871E-10   -3.287914734244835E-10   -1.3801061946807832E-10  -1.8121445204232334E-10  -9.468524497347495E-11   -5.416487855281639E-10   1.0132745490593047E-10   2.752532631992464E-10
3.25E-5                   -6.449984097989017E-11   -9.930322636499263E-11   -1.60397645666149E-10    -2.8449107970816724E-10  -2.8253897472442796E-10  -3.448966765602481E-11   1.4309200382227713E-11   2.0647955001215356E-10   -3.6264792325412116E-10  -2.088691014078745E-10   -2.4774023562294053E-11
3.2999999999999996E-5     -7.830389535334245E-11   -1.1016710468034529E-10  -1.6163021122588021E-10  -2.788912050648561E-10   -2.1335952711915417E-10  9.629968397464259E-11    2.5374481486082587E-10   5.737752875907339E-10    -1.1440647951812944E-10  -5.812740418334263E-10   -3.91093616221471E-10
3.35E-5                   -9.205593012172192E-11   -1.1942102742796786E-10  -1.5775497784022928E-10  -2.581980012535361E-10   -1.1568797521757488E-10  2.5330540561892567E-10   5.360531191638829E-10    1.0054174444590164E-9    2.1082434840419703E-10   -1.0170498049025935E-9   -8.21606697916457E-10
3.4E-5                    -1.0543760054708538E-10  -1.2505969990017048E-10  -1.4879338249508219E-10  -2.1917445716911243E-10  1.496413613265094E-11    4.3336132094078666E-10   8.558686822229947E-10    1.4945318541030294E-9    6.118324863351378E-10    -1.5124294179426682E-9   -1.3136259478673353E-9
3.45E-5                   -1.177094595388827E-10   -1.2534845072790248E-10  -1.3448159645899846E-10  -1.584579590660389E-10   1.7999911359660673E-10   6.32081295242503E-10     1.2059196250626722E-9    2.0307000760367994E-9    1.0803570083107333E-9    -2.05655699244725E-9     -1.860930925317216E-9
3.5E-5                    -1.276802701468455E-10   -1.1999341098957008E-10  -1.1241171498965646E-10  -7.363029146247717E-11   3.772702752034098E-10    8.443457280025939E-10    1.5801957932988182E-9    2.6005524542853883E-9    1.6034073159118114E-9    -2.6332216867282968E-9   -2.4513012727038934E-9
3.5499999999999996E-5     -1.3400458728779128E-10  -1.100560076958582E-10   -7.77813324900516E-11    3.649333416970834E-11    6.012719535852686E-10    1.0644895118098085E-9    1.9729303195483858E-9    3.1866917920954456E-9    2.164724446565977E-9     -3.2231479672034316E-9   -3.068256066246213E-9
3.6E-5                    -1.354696764736553E-10   -9.620897398999658E-11   -2.5817192478973624E-11  1.7197169588692888E-10   8.4375463437558E-10      1.2857328314130251E-9    2.3731894196520383E-9    3.766134561805505E-9     2.74699818357787E-9      -3.8036568414299005E-9   -3.6926000268828437E-9
3.65E-5                   -1.3100679635742387E-10  -7.673928498874704E-11   4.490514488561777E-11    3.3141672527927827E-10   1.0956403351976628E-9    1.4989552177576041E-9    2.760934402392589E-9     4.309556368478966E-9     3.3344579952976596E-9    -4.347447319079949E-9    -4.29938601667493E-9
3.7E-5                    -1.1947057459473987E-10  -4.74519194775503E-11    1.3134505427861216E-10   5.115710209517173E-10    1.3496474210683628E-9    1.6928056503908163E-9    3.109795244324045E-9     4.782077332673396E-9     3.912671586300064E-9     -4.8234335554806875E-9   -4.8548400351749E-9
3.75E-5                   -9.945396099746505E-11   -4.063982524541293E-12   2.2823710479488044E-10   7.075246190819007E-10    1.600885338836345E-9     1.8560005989147051E-9    3.394324753905744E-9     5.146208541285635E-9     4.464396219458903E-9     -5.198566505945613E-9    -5.3194106089908425E-9
3.7999999999999995E-5     -6.943419442278413E-11   5.480951061966615E-11    3.3156370376957267E-10   9.132473860733878E-10    1.843860353943098E-9     1.978901725667384E-9     3.5941451688177966E-9    5.366234484159589E-9     4.964747921956358E-9     -5.438056070707973E-9    -5.653816816188764E-9
3.85E-5                   -2.831918692634255E-11   1.2666970188612865E-10   4.39997347050756E-10     1.1215857837837707E-9    2.068084763880459E-9     2.0515883847204147E-9    3.6910403104887227E-9    5.410882143233061E-9     5.379463786665215E-9     -5.504828667240581E-9    -5.820854981157576E-9
3.9E-5                    2.3992378102395107E-11   2.0681399461645625E-10   5.531804528657949E-10    1.323972644496223E-9     2.256156799085623E-9     2.0606999123076366E-9    3.6632847580715937E-9    5.251903147653968E-9     5.6661967274330065E-9    -5.360878529758889E-9    -5.783669960078109E-9
3.95E-5                   8.66722633693329E-11     2.9088399190335207E-10   6.68814072896162E-10     1.510923810377941E-9     2.386001646515812E-9     1.9898914246116243E-9    3.484385906994667E-9     4.861019851499457E-9     5.776428881390103E-9     -4.970548332560461E-9    -5.5069377859783E-9
3.9999999999999996E-5     1.5878599545433314E-10   3.7600325361514783E-10   7.814748744213404E-10    1.6732272756337082E-9    2.4356048094301522E-9    1.8246647604656248E-9    3.1282772342680883E-9    4.2100245574346585E-9    5.6580936852843595E-9    -4.303770373328451E-9    -4.9614401304635294E-9
4.0499999999999995E-5     2.400911901283597E-10    4.599586762860527E-10    8.84129202714344E-10     1.8022173917969855E-9    2.386961033075794E-9     1.5571433444573178E-9    2.576624736461218E-9     3.2747686561240398E-9    5.262073463139831E-9     -3.3384989214282826E-9   -4.126182798239531E-9
4.1E-5                    3.307955046928406E-10    5.39839381588069E-10     9.706344725206543E-10    1.8883303392991854E-9    2.2270214319097317E-9    1.1866778158654307E-9    1.8227151486130623E-9    2.039438309879802E-9     4.553064770664784E-9     -2.0625451895561324E-9   -2.9864644571672568E-9
4.15E-5                   4.3024094274830816E-10   6.118254068890652E-10    1.0367553162305854E-9    1.9195164683640483E-9    1.9463795078122253E-9    7.167883029785055E-10    8.698806597939895E-10    4.990763801931544E-10    3.518292308311407E-9     -4.746101653488948E-10   -1.5331943265699724E-9
4.2E-5                    5.356553084359441E-10    6.72338195530276E-10     1.0788475826619944E-9    1.8816668617618937E-9    1.5385882931057642E-9    1.519270064475885E-10    -2.733079913132285E-10   -1.3382125665409329E-9   2.1657106466887606E-9    1.414908027245615E-9     2.3309023515130465E-10
4.2499999999999996E-5     6.420825045741018E-10    7.191161235612928E-10    1.091571022269893E-9     1.7610650381951738E-9    1.0014682120969737E-9    -5.034833536411376E-10   -1.5964212525278955E-9   -3.4488964124811087E-9   5.119490092354226E-10    3.581731293769748E-9     2.2967735847397908E-9
4.2999999999999995E-5     7.433688793169071E-10    7.506878810038019E-10    1.0667957433787957E-9    1.5468968837798918E-9    3.380897668349889E-10    -1.243490857457694E-9    -3.0854611931660114E-9   -5.793783084623853E-9    -1.4290338437403493E-9   5.98475378265618E-9      4.625005121664382E-9
4.35E-5                   8.330607406479423E-10    7.644110624385866E-10    9.948211593408792E-10    1.2323337497020764E-9    -4.4517472183997545E-10  -2.0572155381479393E-9   -4.716943830280705E-9    -8.32062329661106E-9     -3.6458003317850194E-9   8.565853298603173E-9     7.169329786100986E-9
4.4E-5                    9.044046958632758E-10    7.550269202273123E-10    8.671588029312651E-10    8.143276398598086E-10    -1.3415144542311844E-9   -2.925107096622124E-9    -6.452877893928315E-9    -1.0966021854194936E-8   -6.11828364624757E-9     1.1253564493492942E-8    9.867971290573691E-9
4.45E-5                   9.499122034709772E-10    7.154939545410694E-10    6.789337859496989E-10    2.929213356393276E-10    -2.3422000615345887E-9   -3.817957051270549E-9    -8.240456743719038E-9    -1.3653139247171369E-8   -8.805220130235773E-9    1.3966102473517557E-8    1.2645683609954872E-8
4.4999999999999996E-5     9.616554980114572E-10    6.396471155197774E-10    4.293908047643683E-10    -3.2918204748922537E-10  -3.4294714702396283E-9   -4.701088896145131E-9    -1.0014630871249148E-8   -1.6286803688520167E-8   -1.1637836629327327E-8   1.6609544895462934E-8    1.5411146403286106E-8
4.5499999999999995E-5     9.327005270110697E-10    5.243366817940314E-10    1.2071950119290308E-10   -1.0459626084533406E-9   -4.569869515893772E-9    -5.541115350398732E-9    -1.1699439061171319E-8   -1.8751717441161342E-8   -1.4520440933074264E-8   1.90742920690261E-8      1.80555370319351E-8
4.6E-5                    8.586168221087543E-10    3.6929675868764575E-10   -2.431172316360259E-10   -1.8461152206199754E-9   -5.715410959800078E-9    -6.308566012275024E-9    -1.3208531470965528E-8   -2.091774734678049E-8    -1.73357449161302E-8     2.123671609660698E-8     2.045593801281899E-8
4.65E-5                   7.375373281552458E-10    1.7538603684744678E-10   -6.560831404432495E-10   -2.711275453017754E-9    -6.812663004920195E-9    -6.973642531104492E-9    -1.4449688623507694E-8   -2.2650615545928496E-8   -1.995371282575769E-8    2.2967049974718924E-8    2.2482538798243785E-8
4.7E-5                    5.685095546403978E-10    -5.672140590066661E-11   -1.1085149056688206E-9   -3.6165877452122186E-9   -7.811845392466202E-9    -7.501001343377329E-9    -1.533459971681517E-8    -2.3822069655351494E-8   -2.2241814416810562E-8   2.4137302942203514E-8    2.4005253524583873E-8
4.7499999999999996E-5     3.4967649546788745E-10   -3.2625357617478025E-10  -1.586024382124392E-9    -4.533469174293714E-9    -8.66857460208756E-9     -7.851052908139638E-9    -1.578771776887187E-8    -2.4314761950746695E-8   -2.407221818539605E-8    2.4624474411868932E-8    2.4898269984482226E-8
4.8E-5                    7.823129200601175E-11    -6.31138187817409E-10    -2.070431980843193E-9    -5.431609651493771E-9    -9.338911594695565E-9    -7.986932500012838E-9    -1.574759203941644E-8    -2.402265191832716E-8    -2.5322891431643652E-8   2.4311805908311917E-8    2.5045049337290534E-8
4.85E-5                   -2.4742114799136457E-10  -9.670332396976869E-10   -2.5426532393556148E-9   -6.277920218730508E-9    -9.774778076466012E-9    -7.87974500529118E-9     -1.51623478263307E-8     -2.2852234049656774E-8   -2.587495447326895E-8    2.3093855114427337E-8    2.434467450490793E-8