% Model:              Untitled.mph
% Version:            COMSOL 6.0.0.405
% Date:               Jul 17 2025, 07:32
% Dimension:          1
% Nodes:              401
% Expressions:        11
% Description:        Point graph
% Time (s)                Displacement field, Y component Displacement field, Y component Displacement field, Y component Displacement field, Y component Displacement field, Y component Displacement field, Y component Displacement field, Y component Displacement field, Y component Displacement field, Y component Displacement field, Y component Displacement field, Y component
0                         3.9681532438347604E-32   -3.03020789789157E-31    -1.12972176894888E-32    -1.1574986141722124E-33  -9.860216167776161E-33   -5.153491191988535E-34   -3.768989448135993E-34   -7.71259297678999E-35    -1.1458107141210676E-35  -3.586939226448606E-37   -1.442427951204316E-38
5.0E-7                    -2.2266367394429854E-23  -8.314320332178993E-23   -1.0191598745086331E-22  -1.1007603252502055E-23  -1.6870874561291868E-23  9.648910293938553E-26    5.641734001244348E-26    -4.5144308603992914E-27  -1.2393984896131806E-27  -1.9225664678308508E-28  -1.4939423929148252E-30
1.0E-6                    1.1117291415244723E-22   1.1421889069328656E-21   1.2582650784280217E-21   4.3968952172652076E-23   1.5099319028006875E-22   -1.9704830546064818E-25  -1.963302508049058E-26   1.8504333261359268E-25   4.379824671781208E-26    1.8906378572148645E-27   2.852378082430876E-29
1.5E-6                    8.080544836336422E-22    -3.400430052244512E-21   -8.371086768376914E-21   1.7503295678017697E-22   -3.618293652883639E-22   -8.166070348181888E-26   -8.983242368071268E-25   -8.466064827336673E-25   -2.0608643572579752E-25  -4.454313599790097E-27   -7.034648217187863E-29
2.0E-6                    -1.2730987542646325E-20  -3.3305698035247323E-21  2.7130987494791674E-20   -5.889547414451149E-22   -3.5678678405600704E-22  7.382695647166186E-24    5.966866758022807E-24    1.6240932404317557E-24   2.9777181766337744E-25   -2.570545625946685E-27   -2.438287530761039E-28
2.4999999999999998E-6     6.014898666552723E-20    1.166280520138425E-20    -1.3922080969000453E-20  -1.9420040774548423E-21  2.1829000833321883E-21   -3.623817229045846E-23   -1.4907790355588063E-23  -1.4352816255920005E-24  2.3356773530498686E-25   3.92849791920148E-27     6.579519420365683E-28
3.0E-6                    -8.161958866561498E-20   1.2742319308623974E-19   -8.006185222667063E-20   4.334438375035674E-21    4.93436494054147E-21     3.629002742837108E-23    1.82261739147751E-23     3.063883605569476E-25    -2.3475047478482783E-25  8.437982497495531E-26    3.90499115203911E-27
3.5E-6                    -2.0764755487049858E-19  -3.4340534023171395E-19  -2.1097848028970432E-21  1.273233352492364E-20    -1.669968947728507E-20   8.03193465822002E-23     -4.153913910116583E-23   5.308610758769339E-24    -2.7013658037756527E-24  -2.613526534481227E-26   -1.403129735811013E-26
4.0E-6                    4.87962678617271E-19     -6.722363884829889E-19   -3.42385972432983E-19    -1.554759323005001E-21   -4.6636562252661293E-20  -3.7520437239753126E-22  1.2433722886705226E-23   -1.2598053218840935E-23  -3.2049283954078876E-24  -5.941492759948789E-25   -1.507880612278672E-26
4.5E-6                    1.7972816708881164E-19   2.6678320239746276E-18   2.47808168368583E-18     -5.750552340965482E-20   9.115258188210073E-20    1.1195298288082067E-21   6.115087423422956E-22    -3.554541365438135E-23   2.277473088659749E-23    -8.454381818379206E-25   1.0036125010157413E-25
4.9999999999999996E-6     2.9383902981697956E-19   1.1300081557299266E-18   3.7838967532278555E-18   -1.8532163992335114E-19  2.7240584850022756E-19   2.5050177416201404E-21   -6.406509105858636E-22   6.643323458819081E-24    2.6148417515724828E-23   1.9169466406056496E-24   8.413308615346641E-26
5.5E-6                    2.9799761649208576E-19   -9.698417195046703E-18   -1.9941347395737155E-17  5.956092213410768E-20    -1.3920366452862503E-19  -1.3747926821238397E-20  -3.470125841270559E-21   6.05969343943541E-22     -3.5386404875265916E-23  1.8135179099771482E-23   -4.315374015171361E-25
6.0E-6                    -9.714599201130341E-18   1.4909293646462195E-18   -2.604340717651785E-17   1.4740639150260147E-18   -1.2735009457048512E-18  -2.739298342790175E-20   -7.678509759361571E-22   -2.8514143795644756E-23  -2.401173643011572E-22   1.355578473548964E-23    -1.1460403989247602E-24
6.5E-6                    -2.4414749849605205E-18  2.0927381815934488E-17   8.433607399506727E-17    1.5468529007544736E-18   -1.7468968952660933E-18  8.241178255523262E-20    2.18196369151886E-20     -4.097339122081186E-21   -4.872357120111972E-22   -1.4968518355045858E-22  5.991854977499244E-25
7.0E-6                    4.8124006577023933E-17   -1.1366107035543256E-17  1.4884159893471787E-16   -5.285956044170816E-18   3.968852469895087E-18    2.6209575385073273E-19   3.9268886282749105E-20   -5.735932201891843E-22   1.1454219307449732E-21   -2.907168838308851E-22   1.0534673206079438E-23
7.499999999999999E-6      1.7764590835044703E-17   -2.5331078526603537E-17  -1.8929566578699136E-16  -1.1334639243103029E-17  1.7443042466686836E-17   -2.2309178473175875E-19  -1.164091961798498E-19   1.439938856523214E-20    4.128135914315637E-21    6.268190759691322E-22    1.2415878166268449E-23
8.0E-6                    -1.6030046312002345E-16  2.788926700068414E-17    -5.954969925370742E-16   8.346543593260639E-18    3.033083928585553E-18    -1.6646598946467638E-18  -3.3169176553845664E-19  4.6027539500681126E-21   -1.9915466775952593E-21  2.470006548362358E-21    -6.097936625338491E-23
8.5E-6                    -1.0092727845032162E-16  6.2653999254925495E-18   8.156778772722593E-19    3.929383029895343E-17    -8.128915888934078E-17   -6.56756430937501E-19    4.2667763223910887E-19   -1.6271817960687272E-20  -1.4730917927195472E-20  -2.0840625587310282E-22  -1.6610447061588593E-22
9.0E-6                    4.514536027577427E-16    6.875493086729377E-17    1.531845094094625E-15    3.278873434668208E-19    -1.1096635622625846E-16  6.899174342124904E-18    1.9807576225027437E-18   3.7949104136526166E-20   7.1233459952562795E-22   -1.2301810222492147E-20  1.5712037734586947E-22
9.499999999999999E-6      6.201753631662809E-16    4.181445532063102E-16    1.7249575663668748E-15   -8.170650502091108E-17   1.7769513164039508E-16   1.0596355551938361E-17   -2.3901754579789346E-19  -4.5277821062588156E-20  1.892684281231006E-20    -1.4805646792684685E-20  1.1346124783972773E-21
9.999999999999999E-6      -4.777366259328134E-16   -2.7481249061934644E-17  -1.4290960879085018E-15  3.362470943728132E-17    5.878203151330156E-16    -1.3907093244779198E-17  -8.06004991865596E-18    -6.145194468627762E-19   -5.924434245566693E-20   3.375270618501611E-20    6.386520771875425E-22
1.05E-5                   -1.5486696583684724E-15  -2.053907077098147E-15   -5.639510371431447E-15   2.758585333501907E-16    1.864604064920621E-16    -5.410477098564216E-17   -6.22881292887696E-18    -3.2563475558390397E-19  -6.798927102281703E-21   1.0441978464018396E-19   -4.676181681912972E-21
1.1E-5                    -6.326005852442735E-16   -1.8401743807184035E-15  -3.836471965779351E-15   -1.3814020993137144E-16  -1.3072952535094675E-15  -2.09380013746624E-17    2.2933301156630892E-17   3.542536657686069E-18    6.421300819610183E-19    5.9542758012618516E-21   -8.97519661729317E-21
1.15E-5                   1.861040168933879E-15    6.0678813025495646E-15   7.958428342414783E-15    -1.2104314827576599E-15  -2.0587094952619065E-15  1.436998806328702E-16    4.630391475910105E-17    6.5170549891048804E-18   7.092333448637479E-19    -3.7980106345734665E-19  8.259872166178586E-21
1.2E-5                    5.494172073890066E-15    1.5576946087616606E-14   1.8779579485084398E-14   -3.9710689768871577E-16  6.676992487988374E-17    2.582322843511949E-16    -1.9568334021118333E-17  -7.862490858497369E-18   -2.802323517775719E-18   -5.254560131430547E-19   4.700793322238241E-20
1.2499999999999999E-5     1.0214768760963036E-14   7.013656339073351E-15    8.798825141223296E-15    4.1397749985090644E-15   4.251433566699122E-15    -4.1977263124014534E-17  -1.6134823089956252E-16  -3.77022550402229E-17    -6.904782527436536E-18   5.877249356729472E-19    2.950355883129239E-20
1.3E-5                    6.898060497625403E-15    -2.3483249892022354E-14  -1.6717800696603934E-14  6.900738402625854E-15    7.388703090707429E-15    -7.300682544970939E-16   -1.2880706163081218E-16  -1.788970114208743E-17   3.3999510831446826E-18   2.4790529081556146E-18   -1.3467703384035706E-19
1.35E-5                   -1.329004354192973E-14   -3.3761300574208324E-14  -1.3555926315502523E-14  -1.72228639891066E-15    5.775261189097131E-15    -8.519498380505187E-16   3.3006794931255873E-16   1.161211715135888E-16    3.180280103451615E-17    1.469992134513786E-18    -2.8185065617801253E-19
1.4E-5                    -1.423853665934216E-14   3.187783453419321E-14    4.1154218491875743E-14   -1.7666305515179932E-14  -6.7248578334686314E-15  7.681354902435331E-16    8.535858723449042E-16    2.190579378219468E-16    2.971067291276421E-17    -5.332570871416783E-18   8.457967591841136E-20
1.45E-5                   7.571042614639037E-14    1.5674111414563285E-13   8.301203449897761E-14    -1.427538012722784E-14   -2.969366541483531E-14   3.358783598034137E-15    3.3279708701372867E-16   -8.013616829722843E-17   -6.911877691460042E-17   -1.1014933458154408E-17  1.0347211808321774E-18
1.4999999999999999E-5     2.2333104243361333E-13   2.293571002334922E-13    3.846474346250373E-14    3.127070282099597E-14    -3.015541623495308E-14   3.1008971503967064E-15   -1.7049572725387892E-15  -7.840585990229974E-16   -1.8996053967843644E-16  8.373958085750291E-20    1.1155841207846111E-18
1.55E-5                   2.1827318782044134E-13   1.680493667169893E-13    1.3934568855126286E-14   9.492149164611557E-14    4.494323795767579E-14    -2.960758707772638E-15   -2.9588566722750736E-15  -8.303330922587158E-16   -4.5960997784828896E-17  2.822251793113511E-17    -1.6545123209551862E-18
1.6E-5                    -1.973317565588847E-14   1.0417664408319176E-13   2.994706188172776E-13    1.0650040761381293E-13   1.707096262042772E-13    -9.205971464997859E-15   9.519167131664174E-16    1.121903977796409E-15    5.03117906379342E-16     3.560340476770039E-17    -5.522998447728856E-18
1.6499999999999998E-5     1.4385035261579833E-14   4.162522360844465E-13    1.0142947316408138E-12   2.691438940978197E-14    1.8586073506856986E-13   -1.4028634320595595E-15  1.0144023901801057E-14   3.983604560086133E-15    8.438470836318002E-16    -2.0877385699710054E-17  -2.814040340762145E-18
1.7E-5                    1.1848340395141987E-12   1.4522813524319644E-12   1.755769227745585E-12    -5.253230659768207E-14   -2.2620043923863766E-14  2.5609997873107275E-14   1.422380461472278E-14    2.9105903666150694E-15   -1.7906602588590038E-16  -1.0538053396502419E-16  1.1295605636961001E-17
1.75E-5                   3.581855409917268E-12    3.050836256830541E-12    1.8901860410830118E-12   8.993583575820198E-14    -2.2084399894704395E-13  4.8961443750339785E-14   6.486045658593518E-16    -5.7490206507883035E-15  -2.466266339012155E-15   -8.612231000345489E-17   2.2917184842920192E-17
1.8E-5                    5.797239711712863E-12    4.466735070273306E-12    1.5562178632176876E-12   6.31761381921988E-13     7.890684668920073E-14    3.56648939167153E-14     -2.014982118547713E-14   -1.5001625239790706E-14  -2.9958643754336263E-15  1.1175724425427346E-16   2.6704549869300464E-18
1.85E-5                   6.177172936349103E-12    5.402081163958889E-12    2.4376034936295824E-12   1.4762831942862241E-12   1.002913126894494E-12    -8.755488379455046E-16   -5.964200890623225E-15   -6.650966210207099E-15   1.9079997384144084E-15   3.1944492931655026E-16   -5.233678588348189E-17
1.8999999999999998E-5     5.507057490807894E-12    7.678006197854417E-12    7.1517534179460825E-12   2.281521166877623E-12    1.9627291017577604E-12   2.4420902546792783E-14   7.164071310579505E-14    2.7857165186759623E-14   9.964697200156905E-15    2.1677777548009951E-16   -7.635766489595551E-17
1.95E-5                   8.502959754255578E-12    1.5536873438272484E-11   1.74083780070357E-11     2.9265752965400573E-12   2.3563583467205384E-12   2.0079085700324992E-13   1.64960119595616E-13     5.983768128202812E-14    1.0060473803233307E-14   -2.545414455274119E-16   2.0193718694957788E-17
1.9999999999999998E-5     2.2374060962906408E-11   3.322329101559824E-11    3.2697374858616375E-11   4.086140578691134E-12    2.720025585042869E-12    5.203663676122381E-13    1.8487558285585722E-13   3.3825753953359136E-14   -7.004429600068294E-15   -6.339506935319446E-16   2.0542084143801942E-16
2.05E-5                   5.3516927159493175E-11   6.155091380745048E-11    5.0866494975734076E-11   7.29060453393611E-12     4.769689622804139E-12    8.806073790499115E-13    1.5711378585143357E-13   -6.19091000217023E-14    -2.990979217627893E-14   -3.06520387200698E-16    2.490011468800024E-16
2.1E-5                    1.0435107378515675E-10   9.659340790415851E-11    6.94467641570133E-11     1.4311343997116942E-11   9.997755194350585E-12    1.2348810753120491E-12   3.066380671166156E-13    -1.2914777611684803E-13  -2.5921203770519144E-14  8.097360284248871E-16    -6.758881740676782E-17
2.1499999999999997E-5     1.7074176791719615E-10   1.3093364376413045E-10   8.540350126274393E-11    2.6375095498688996E-11   1.8445613137108423E-11   1.7865619395560139E-12   8.70075462063131E-13     -1.1450195133619093E-14  2.5785533607311512E-14   2.0842387207596805E-15   -5.412232462438083E-16
2.2E-5                    2.3977716851493993E-10   1.550971258365921E-10    9.364752947230603E-11    4.3542883020535996E-11   2.898953375609867E-11    3.0866146559976154E-12   1.8076852463362182E-12   3.271399669593538E-13    9.391673544361908E-14    2.789808825123756E-15    -4.568319558651082E-16
2.2499999999999998E-5     2.8950423903924337E-10   1.5852087121033394E-10   8.773996758702247E-11    6.395085318855922E-11    4.017674496095253E-11    5.92973389571661E-12     2.8793896775407015E-12   6.786112757927788E-13    1.0358723060916737E-13   2.985031715476903E-15    7.626021095051511E-16
2.3E-5                    2.933386412062227E-10    1.3243007864044974E-10   6.421230027905796E-11    8.302913825405319E-11    4.991591268903099E-11    1.0980788685524724E-11   4.189789383952481E-12    7.325303789243023E-13    9.755322313497583E-15    4.170382370215043E-15    2.6345181772693737E-15
2.35E-5                   2.2922707795025142E-10   7.493525690161605E-11    2.64078011210447E-11     9.40816421484611E-11     5.461880823904078E-11    1.8240858515553355E-11   6.593020843219982E-12    4.3992861236749366E-13   -1.2594649297768703E-13  9.34504335725821E-15     3.696207331815066E-15
2.4E-5                    8.964416416642738E-11    -6.285254296283162E-12   -1.6991856753758827E-11  9.118153993682497E-11    5.0232101128001613E-11   2.6763902612629798E-11   1.1284097837802704E-11   2.7086242803944997E-13   -1.4055021930478022E-13  2.1395701459192847E-14   3.2416049667812214E-15
2.45E-5                   -1.1231082242640909E-10  -9.760359292860075E-11   -5.736655804909465E-11   7.253562621015306E-11    3.554279093008427E-11    3.4979224546242104E-11   1.8756101679535594E-11   1.064295502474509E-12    1.2191254300647604E-13   3.966884510596708E-14    3.4229361847714842E-15
2.4999999999999998E-5     -3.4298919628125257E-10  -1.8628365097224935E-10  -8.98769369585273E-11    4.102051689188472E-11    1.443499574898764E-11    4.133215054553794E-11    2.8024570342169098E-11   3.5068597207894028E-12   6.648432122237763E-13    5.925705818356744E-14    9.328733818096468E-15
2.55E-5                   -5.548228238404448E-10   -2.641617024952956E-10   -1.1405051417553166E-10  1.5270569264574638E-12   -6.223561111884662E-12   4.451284038201348E-11    3.6692859926547125E-11   7.589256426039599E-12    1.2622749238766282E-12   7.967362239337406E-14    2.6434320458592173E-14
2.6E-5                    -6.99774708386992E-10    -3.2709347155397133E-10  -1.3473694393985318E-10  -4.148499224607086E-11   -2.18647821213577E-11    4.315960197336676E-11    4.16369526744485E-11     1.2441515795287006E-11   1.5530073201088596E-12   1.1925325070717097E-13   5.829135058756152E-14
2.65E-5                   -7.480457274386434E-10   -3.748164409279676E-10   -1.6349602110954384E-10  -8.407010366907409E-11   -3.379942304707479E-11   3.589109946467169E-11    3.9949623482929035E-11   1.6773365936189082E-11   1.3515567903095796E-12   2.152816413391538E-13    1.0843267537929079E-13
2.7E-5                    -7.050825377000458E-10   -4.133788124229447E-10   -2.1487331559830223E-10  -1.2304048279914697E-10  -4.7959872806075706E-11  2.2205780714732482E-11   3.0130723019911324E-11   1.9793209848023148E-11   1.049852147710797E-12    3.944888477922638E-13    1.867323823636567E-13
2.7499999999999998E-5     -6.160274834048975E-10   -4.559290583709491E-10   -2.9645608295215497E-10  -1.590789919904379E-10   -7.061490060092897E-11   3.2645516446679627E-12   1.3243777871335309E-11   2.199368900634337E-11    1.7482035800018032E-12   6.367924121139063E-13    3.146531614956312E-13
2.8E-5                    -5.511889648587227E-10   -5.177155403455879E-10   -4.0167482470990937E-10  -1.99613436456215E-10    -1.051051246211224E-10   -1.88909771983579E-11    -7.022619020470979E-12   2.494711489342075E-11    4.74468949056562E-12     8.899351704724418E-13    5.223308820690738E-13
2.8499999999999998E-5     -5.775639387408146E-10   -6.078615840588329E-10   -5.134259150294063E-10   -2.5562358604453166E-10  -1.5123416899312435E-10  -4.3310930676367535E-11  -2.6203884986535355E-11  2.980756359773536E-11    1.0466252086007915E-11   1.1645985826697E-12      8.370553352339701E-13
2.9E-5                    -7.29938329666435E-10    -7.240704856245874E-10   -6.137869113816524E-10   -3.3303246356406885E-10  -2.0580165135024162E-10  -7.099432972386448E-11   -4.187268959679176E-11   3.5442790950678126E-11   1.757960154534629E-11    1.6468881645794436E-12   1.272723398724571E-12
2.95E-5                   -9.936452908680292E-10   -8.522776945837378E-10   -6.89164474348866E-10    -4.2692967746922956E-10  -2.62901451927779E-10    -1.0322258887283275E-10  -5.5146122035400276E-11  3.787396228961579E-11    2.3195064210885957E-11   2.6960349455361875E-12   1.831183665786467E-12
2.9999999999999997E-5     -1.303848547802218E-9    -9.685821628591443E-10   -7.298336077029907E-10   -5.241869996716346E-10   -3.14898237303281E-10    -1.390276096137756E-10   -6.968056208333409E-11   3.195374158554119E-11    2.4386748664740715E-11   4.648133691212282E-12    2.511784739155227E-12
3.05E-5                   -1.5612539230366533E-9   -1.0425546699027788E-9   -7.316488145427516E-10   -6.102321219734998E-10   -3.5530152455187824E-10  -1.7480871691397466E-10  -8.933427546258475E-11   1.4416107395137066E-11   2.014621479684787E-11    7.510763010087459E-12    3.3080868409207865E-12
3.1E-5                    -1.6616892018093778E-9   -1.0446421374634805E-9   -7.009507975761773E-10   -6.727510925580446E-10   -3.8210975112481753E-10  -2.067749451937562E-10   -1.1646746150591978E-10  -1.3794583968045635E-11  1.2318310712692718E-11   1.076989426677507E-11    4.179491004023275E-12
3.15E-5                   -1.5318440920065615E-9   -9.573746471409718E-10   -6.53038466553821E-10    -7.023055057449123E-10   -3.9831627618414635E-10  -2.3363475274577493E-10  -1.5132402230285528E-10  -4.760077824680219E-11   4.623799375570313E-12    1.349764831598404E-11    5.027411747687004E-12
3.2E-5                    -1.1568924513622603E-9   -7.830420146702316E-10   -5.994719359869958E-10   -6.948172507982327E-10   -4.0836456931794674E-10  -2.5681188061857803E-10  -1.9157641168252474E-10  -8.038086213955052E-11   2.2694558613972563E-13   1.474865616966226E-11    5.7335529344834125E-12
3.25E-5                   -5.862149120996083E-10   -5.405448342093724E-10   -5.348943684151421E-10   -6.551813750074245E-10   -4.134179012725322E-10   -2.78460504816143E-10    -2.3187411746208893E-10  -1.0763518625777917E-10  -5.613967885567127E-13   1.402044874894894E-11    6.2683737481439614E-12
3.2999999999999996E-5     8.60647861782133E-11     -2.53318022652239E-10    -4.372897075328541E-10   -5.94641180701143E-10    -4.095304434743967E-10   -2.997501754694532E-10   -2.6463539255508064E-10  -1.2961312113025338E-10  -8.727258321393398E-13   1.1494287448957457E-11   6.766648049956638E-12
3.35E-5                   7.567986016991451E-10    6.27487159311092E-11     -2.8108720352236257E-10  -5.199089262003547E-10   -3.8973615423154045E-10  -3.2064055328137334E-10  -2.8276590831148555E-10  -1.5120228002574548E-10  -5.79559235767607E-12    7.889039170194504E-12    7.42000542962755E-12
3.4E-5                    1.3516772457469065E-9    4.0554186615766425E-10   -4.9903347945975294E-11  -4.2394480658934156E-10  -3.474077134027616E-10   -3.3975802033979834E-10  -2.828384492275807E-10   -1.7881488712101467E-10  -1.9843183283028398E-11  3.945464488860991E-12    8.164375878134733E-12
3.45E-5                   1.8524082291610546E-9    7.876416528460199E-10    2.598127014018013E-10    -2.892593735787397E-10   -2.779466892122922E-10   -3.5293151797622176E-10  -2.6641770605313524E-10  -2.158875793281738E-10   -4.482134319148213E-11   -2.709641576691732E-13   8.370181369852631E-12
3.5E-5                    2.303448322986142E-9     1.232691825386084E-9     6.409336025086525E-10    -1.009574271327722E-10   -1.784630640564286E-10   -3.517365877288781E-10   -2.388071430754713E-10   -2.597425219809766E-10   -7.887592092636404E-11   -5.895746085716527E-12   6.83944069133578E-12
3.5499999999999996E-5     2.7935107102457577E-9    1.7650271823107926E-9    1.0777453043898832E-9    1.4426326656971435E-10   -4.7029077319869646E-11  -3.2506083788321817E-10  -2.0634721853886296E-10  -3.018886793984365E-10   -1.1674070022433024E-10  -1.514891060106889E-11   2.231162568040351E-12
3.6E-5                    3.416278854489755E-9     2.393414430149969E-9     1.548636589801183E-9     4.4091380713220545E-10   1.1741701437317598E-10   -2.6426151139681873E-10  -1.7344734860749483E-10  -3.3162218032434494E-10  -1.5111518758136607E-10  -3.0251429265638976E-11  -6.282931773080825E-12
3.65E-5                   4.224986388343012E-9     3.097721394096065E-9     2.032237814178221E-9     7.8267830690226E-10      3.147527764183252E-10    -1.6828377458985712E-10  -1.3982354572987541E-10  -3.4062829109697893E-10  -1.7515525032038732E-10  -5.164403673713047E-11   -1.849198283068045E-11
3.7E-5                    5.199497330678105E-9     3.828856688754099E-9     2.5138385739209636E-9    1.165214636544854E-9     5.433316593794184E-10    -4.423587505137642E-11   -9.88946514436265E-11    -3.2581833425964253E-10  -1.8538230126932702E-10  -7.656253580285737E-11   -3.300278020050362E-11
3.75E-5                   6.239269811899184E-9     4.522546711259215E-9     2.9852731865235695E-9    1.5831598073505584E-9    7.994489429105768E-10    9.723896309719567E-11    -3.91594099513369E-11    -2.8906893383641E-10     -1.8334377131503853E-10  -9.926234629171008E-11   -4.753868223805811E-11
3.7999999999999995E-5     7.1849192027587724E-9    5.116382432452888E-9     3.4374432647147174E-9    2.0280765141179953E-9    1.0766126785795748E-9    2.480812451014267E-10    5.08737423041167E-11     -2.3460331951349667E-10  -1.745969143820646E-10   -1.1333177414528015E-10  -5.964278233986453E-11
3.85E-5                   7.860515504653484E-9     5.5596002682221054E-9    3.852712254565749E-9     2.48938168341361E-9      1.3653345125780638E-9    4.0632892036765017E-10   1.7676514957470628E-10   -1.6593015968088885E-10  -1.6543012155404242E-10  -1.1500034620452886E-10  -6.767374375993135E-11
3.9E-5                    8.121553784514787E-9     5.815094413706424E-9     4.203792110011712E-9     2.9532802088203084E-9    1.6539897190671946E-9    5.759843410965349E-10    3.352074170315521E-10    -8.397151803014547E-11   -1.5946051895239866E-10  -1.0538249665717727E-10  -7.174636679722523E-11
3.95E-5                   7.891493377990803E-9     5.859808174632835E-9     4.458048250331542E-9     3.3978104054033758E-9    1.930170977255717E-9     7.645072087687455E-10    5.156529269443182E-10    1.3116462358610025E-11   -1.5602272837524978E-10  -9.014288626465143E-11   -7.397399838467148E-11
3.9999999999999996E-5     7.173901143538901E-9     5.685102828618847E-9     4.581896796413679E-9     3.790361302641415E-9     2.181420854600058E-9     9.788295457160906E-10    7.045103819787395E-10    1.2888864076577517E-10   -1.5054599149279666E-10  -7.676247404337779E-11   -7.746043044969811E-11
4.0499999999999995E-5     6.036595143799564E-9     5.291428088642082E-9     4.543079669051473E-9     4.093200353246327E-9     2.3949719690135854E-9    1.2200430923483583E-9    8.890437831898407E-10    2.6705105008771573E-10   -1.3598687070571638E-10  -7.104022462911003E-11   -8.42381335114537E-11
4.1E-5                    4.575147690655891E-9     4.6746521274560804E-9    4.312518411751159E-9     4.272296602136295E-9     2.55702716030409E-9      1.478251179611523E-9     1.059900214841606E-9     4.2988378882212024E-10   -1.047230854700726E-10   -7.462125464699542E-11   -9.334355823488467E-11
4.15E-5                   2.87087483698509E-9      3.813127683002435E-9     3.866652226834873E-9     4.30012814337653E-9      2.6522298081948386E-9    1.731088139653257E-9     1.2124256223005335E-9    6.16857996018195E-10     -5.086637665211829E-11   -8.439008208777413E-11   -1.0054241960172877E-10
4.2E-5                    9.595624165421207E-10    2.669208264912686E-9     3.1888003112951394E-9    4.151668267721081E-9     2.6638078138762367E-9    1.948605570525073E-9     1.3462781366095556E-9    8.236338975872602E-10    2.7499364215894763E-11   -9.353150943342893E-11   -1.0030742092331465E-10
4.2499999999999996E-5     -1.178243202412647E-9    1.2077416759327E-9       2.26904481769874E-9      3.8022257266786476E-9    2.574862504073681E-9     2.1029740196568184E-9    1.4624470320627652E-9    1.0417565763333815E-9    1.2740013639456217E-10   -9.364555401733879E-11   -8.899931475083345E-11
4.2999999999999995E-5     -3.6027366131558482E-9   -5.817325189233577E-10   1.1046536532783391E-9    3.2325752453596364E-9    2.370750475353215E-9     2.1773211533664713E-9    1.5583603097216774E-9    1.2593220518567293E-9    2.422241126718065E-10    -7.73446272014822E-11    -6.71036312626001E-11
4.35E-5                   -6.380438680756749E-9    -2.675182664372565E-9    -2.976241166110632E-10   2.4359409664556015E-9    2.041330656550659E-9     2.168065358716934E-9     1.623820743753602E-9     1.4624956332137638E-9    3.645400813298734E-10    -4.073653729747138E-11   -3.884242852381307E-11
4.4E-5                    -9.539530249496669E-9    -5.020372857895946E-9    -1.919276039499845E-9    1.4186304973699261E-9    1.5814965111331596E-9    2.0796643441793935E-9    1.640607619545315E-9     1.637299061543968E-9     4.888835478452547E-10    1.502131645479637E-11    -9.290831128128449E-12
4.45E-5                   -1.303000609791761E-8    -7.54967821748375E-9     -3.730227098128171E-9    1.9454924555353385E-10   9.899004823228283E-10    1.9161069646350206E-9    1.586583314666335E-9     1.7710164299361615E-9    6.131870918923875E-10    8.393954147863839E-11    1.908288811778813E-11
4.4999999999999996E-5     -1.6706365858302404E-8   -1.0188266412922401E-8   -5.690717945257924E-9    -1.219244103830152E-9    2.676436330041807E-10    1.6752821142393022E-9    1.4427378781267025E-9    1.8529390956397332E-9    7.383486046915776E-10    1.5749283343323049E-10   4.8157738802930066E-11
4.5499999999999995E-5     -2.0343394983960332E-8   -1.2854207208165874E-8   -7.751737754270798E-9    -2.8020505061680964E-9   -5.812724449745948E-10   1.3492371303806973E-9    1.1999867339363214E-9    1.874459947737642E-9     8.659885614270468E-10    2.2830097854218622E-10   8.316747715089952E-11
4.6E-5                    -2.3678073976080556E-8   -1.545387594217002E-8    -9.853039279720268E-9    -4.5269988587295135E-9   -1.5477101750324278E-9   9.284220649501627E-10    8.621810067052446E-10    1.8284577254962612E-9    9.949892106568138E-10    2.9358202997082325E-10   1.298319155078556E-10
4.65E-5                   -2.6455633718217054E-8   -1.7877337672987833E-8   -1.1921376775741078E-8   -6.3597710507309185E-9   -2.614872509479896E-9    4.059349558456095E-10    4.43348891035265E-10     1.707980045049366E-9     1.118268152096694E-9     3.5653592242175293E-10   1.9149277297022788E-10
4.7E-5                    -2.845973855351535E-8    -1.999734402550279E-8    -1.3871751868022781E-8   -8.257363475178456E-9    -3.756983946694016E-9    -2.2023787204416697E-10  -3.943410234663485E-11   1.5048789588767965E-9    1.2217044561857439E-9    4.245692847453416E-10    2.6771859275554253E-10
4.7499999999999996E-5     -2.952311661893946E-8    -2.167466601073499E-8    -1.5611296377053012E-8   -1.0164504340915847E-8   -4.939760316006838E-9    -9.462692376571416E-10   -5.731638827788832E-10   1.2095936505248667E-9    1.2862849246408543E-9    5.047744464329635E-10    3.545995003484397E-10
4.8E-5                    -2.9527407228274934E-8   -2.2770048014966507E-8   -1.7043455506775615E-8   -1.2009364383268268E-8   -6.122398712934026E-9    -1.7618905722831918E-9   -1.1517708998041163E-9   8.126584758734678E-10    1.2927848291418991E-9    5.986160759083419E-10    4.459786912020118E-10
4.85E-5                   -2.8398915847314272E-8   -2.3158776921417724E-8   -1.807153664348962E-8    -1.370320990144159E-8    -7.260238056085039E-9    -2.6504335745025127E-9   -1.773652580024196E-9    3.071562276493337E-10    1.2270698648075774E-9    6.985050581612825E-10    5.347374446637554E-10