% Model:              Untitled.mph
% Version:            COMSOL 6.0.0.405
% Date:               Jul 17 2025, 07:49
% Dimension:          1
% Nodes:              401
% Expressions:        11
% Description:        Point graph
% Time (s)                Displacement field, Y component Displacement field, Y component Displacement field, Y component Displacement field, Y component Displacement field, Y component Displacement field, Y component Displacement field, Y component Displacement field, Y component Displacement field, Y component Displacement field, Y component Displacement field, Y component
0                         -1.0402228852298078E-30  -9.25549641218318E-31    -3.566872173277323E-31   -2.0572380274765987E-31  -1.9154854920410854E-31  -2.6174611469978685E-32  -1.899623700997757E-33   -9.493929087654717E-35   -1.7988410968442634E-35  3.0891784312142994E-31   1.2254179625151673E-36
5.0E-7                    1.3836008096825933E-22   1.3323027298496147E-22   1.972574705899294E-22    3.4724507094892445E-23   1.2641649446443507E-23   3.141781517259951E-24    2.6092580835342915E-25   1.390122230173192E-26    -6.62913670945705E-28    -4.200744681556583E-23   -1.373160286215358E-28
1.0E-6                    -8.262536480740107E-23   -1.08055052584696E-22    -3.7833554598843998E-22  -8.082638163890791E-23   7.384907464620502E-23    1.8125053562530093E-25   -1.9623225443820336E-25  -1.9761997224961782E-26  5.044911001699119E-27    6.942880443174924E-23    1.6090055415138856E-28
1.5E-6                    -6.3250294443481545E-22  -4.239485327026999E-22   7.860394806550435E-22    -7.079085795672474E-22   -6.953245429713605E-22   -3.89073338385347E-23    -1.156452609423359E-24   8.816821582638841E-27    2.2978887185729563E-26   4.500933048783976E-23    -3.011012134314625E-28
2.0E-6                    2.762269032128607E-21    1.7911996964149028E-21   -3.811999527073686E-21   4.8660071484740635E-21   3.414823748482491E-21    2.665464026580864E-22    8.185382032391616E-24    2.880455213275164E-26    1.5393008064429177E-25   -1.0516186803946996E-21  -2.4856200661319763E-27
2.4999999999999998E-6     -5.5144594529550736E-21  -6.3674654208361074E-21  -3.1233076832584657E-20  -1.2514246391801146E-21  -7.542446263968521E-21   -8.170217759323569E-22   -2.79649705008597E-23    -1.1150376173133967E-26  -9.758003999400652E-25   3.4131992544074824E-21   5.2537225658630745E-27
3.0E-6                    9.202734485801318E-21    2.7830489786183643E-20   1.4001549828339078E-19   -1.9812088102852277E-20  -6.2255327114768934E-21  4.5534606717596E-22      3.7570217128695714E-23   5.6327851901969515E-25   -1.6469529216485638E-24  -8.032443883282974E-21   2.8025145689664906E-26
3.5E-6                    -1.9477394985598596E-20  -7.545075657050681E-20   2.5202240661034547E-19   -2.5168198532921183E-20  3.9694641683173167E-20   2.6546967694422663E-21   4.679372051512433E-23    -3.080864866644473E-24   1.0632966223922166E-23   2.449126033180262E-20    -4.572129280888857E-27
4.0E-6                    3.2811014159781805E-20   2.97026776119757E-21     -1.0750401806376593E-18  6.312867971907932E-20    1.9849360253299494E-20   -3.281952880536552E-21   -1.7034363957316643E-22  1.852181511066037E-24    1.666716954686926E-23    6.641836324872268E-21    -3.0148474981912936E-25
4.5E-6                    -1.7958585336528948E-20  4.617462137613303E-19    -2.445363623607365E-18   2.1901679013506093E-19   -1.6910798731538064E-19  -7.51608471493891E-21    -1.601944191632591E-22   9.362621394436783E-24    -8.421646271790177E-23   -1.7123764535135743E-19  -2.195169449103341E-26
4.9999999999999996E-6     -2.7031785308070555E-19  -7.609495754295347E-19   4.571168677241338E-18    4.558352150873731E-20    -2.7564224898389E-19     1.0777064936782693E-21   6.431736444407911E-22    8.718769785405446E-24    -1.2394900196185603E-22  5.0921679121413814E-20   1.348051663291065E-24
5.5E-6                    6.317132383953665E-19    -1.9415608892070103E-18  1.777045224069152E-17    -7.876421646784414E-19   6.446229534566786E-19    3.797001017014259E-20    1.3604173678137807E-21   -4.407556442782968E-23   4.8254859563136435E-22   8.341892388578439E-19    1.1716035305091707E-24
6.0E-6                    3.9038765605989725E-19   3.722900956858384E-18    -8.876288821054007E-18   -2.8008955262721267E-18  1.3389273966400722E-18   1.2706299415932748E-20   -3.64840719247448E-21    -1.1731130596400695E-22  7.82298960693702E-22     1.805334131319148E-18    -2.358759958240708E-24
6.5E-6                    -3.467167788414304E-18   8.458943525504565E-18    -9.512824741752934E-17   -3.058675387452173E-18   -3.11157931056319E-18    -2.1759119556285484E-19  -8.099164512898398E-21   2.7749878779328075E-22   -2.117498827591195E-21   -5.221421757649625E-19   -9.596401527189792E-24
7.0E-6                    -2.3820617999999263E-18  -1.73501914059567E-17    -7.018299788039082E-17   8.296626436020219E-18    -7.896386488868649E-18   -1.1488215883403432E-19  1.2349468979758245E-20   4.327094935972726E-22    -4.290171624849156E-21   -7.901507759108098E-18   -1.4982801919637265E-23
7.499999999999999E-6      5.95461130282803E-18     -6.164580852847268E-17   2.346264563519802E-16    1.9973019046478013E-17   2.846961705866497E-18    7.377087292199759E-19    3.2480877305990333E-20   -1.3262578427982935E-21  7.511632176502977E-21    1.3017666073117646E-17   2.680110823734026E-23
8.0E-6                    -6.9226630072952945E-18  -1.7139193673032632E-18  4.004494979236579E-16    -2.994061573034871E-17   1.2350944125233115E-17   -7.928428631388181E-20   -4.517769695387186E-20   -1.4720451724301694E-21  2.0508868604303312E-20   9.729644895805529E-17    1.4313095388821367E-22
8.5E-6                    -6.337139057549824E-17   1.4754820762871728E-16   -3.893430267685739E-16   -1.763629618686338E-16   -3.3997102932996884E-17  -4.1929811811335156E-18  -2.1248995486484067E-19  1.8461037349268666E-21   -2.199510995781322E-20   1.5640298729186035E-16   4.439773785431364E-23
9.0E-6                    -9.327102501020575E-17   -1.6925427459435348E-16  -1.9868554299854697E-15  -2.7827272040814957E-16  -1.279596090149451E-16   -3.3793857294947024E-18  -1.5254602011171516E-19  -1.454769275729496E-20   -8.93073188393427E-20    1.5168389891869312E-16   -7.495837304135063E-22
9.499999999999999E-6      -9.092925702905921E-17   -1.333624847771058E-15   -2.5668084147273072E-15  -8.586324181070245E-17   -1.7320486147362653E-16  9.1806194271566E-18      2.4518206974347615E-19   -8.098363906480202E-20   3.887821114108204E-20    6.446099064928762E-16    -1.1981760384664825E-21
9.999999999999999E-6      -5.621947895966403E-16   -2.2389340463233823E-15  -1.188043860860746E-16   1.3690290830822587E-16   -1.9014107827557952E-16  7.016270375541828E-18    -7.890158981053244E-19   -1.7248521911497862E-19  3.2467539703991345E-19   2.74170104942678E-15     2.0548199669213152E-21
1.05E-5                   -2.084038280641663E-15   -2.547884425515843E-15   3.468050218329151E-15    -1.2018759939375158E-15  -5.189327419624485E-16   -4.977739056563048E-17   -6.4342490158861456E-18  -4.079385556433314E-19   -2.6241128608192515E-20  7.322304967987566E-15    7.057092158112526E-21
1.1E-5                    -4.193969616726262E-15   -7.965004519001786E-15   -2.730909644600881E-15   -5.941712335591516E-15   -1.7114817857787375E-15  -1.1552170568109266E-16  -1.5270793223467407E-17  -1.838919113766258E-18   -1.2445685128737237E-18  1.6506677585451498E-14   -2.4295452521006416E-21
1.15E-5                   -7.72457509248473E-15    -2.854756338441615E-14   -3.361043545428751E-14   -1.2270579259103784E-14  -4.052765610306756E-15   -5.580071456180983E-17   -2.5628172997537512E-17  -6.88877583164089E-18    -1.0164310422598437E-18  3.961913108707597E-14    -2.6576307600257837E-20
1.2E-5                    -2.010344172757365E-14   -7.083597321357217E-14   -8.236351994878776E-14   -1.5335157185106513E-14  -7.138367281685156E-15   7.594748760817972E-17    -7.4823187750319E-17     -1.915834069573576E-17   2.1336359478128445E-18   9.953384714057457E-14    9.325412789404347E-21
1.2499999999999999E-5     -5.4203689290630466E-14  -1.476757802085917E-13   -1.1249426896074121E-13  -2.1716785093549783E-14  -1.1232408094438581E-14  -2.631549925997595E-16   -2.719577773372407E-16   -5.046089423986748E-17   1.8263848837157613E-18   2.3804101992329516E-13   1.6893346877126562E-19
1.3E-5                    -1.232435734499503E-13   -3.14211519677363E-13    -1.4434140120442518E-13  -6.224932735405476E-14   -2.1244648417777825E-14  -1.810304455987179E-15   -7.54251503245807E-16    -1.4566585590610333E-16  -1.0187458277190288E-17  5.382327309264893E-13    2.777918292348705E-19
1.35E-5                   -2.533471693351942E-13   -6.95884442404657E-13    -3.8539986548753573E-13  -1.6629511852372863E-13  -4.703813915295239E-14   -4.671003975275429E-15   -1.7514535075787315E-15  -4.186801722147577E-16   -2.5692692735470577E-17  1.1780414746710892E-12   2.3213815959933985E-19
1.4E-5                    -5.163095828714264E-13   -1.4874886706991721E-12  -1.1362842373526426E-12  -3.141085435945053E-13   -9.296134262994846E-14   -8.93934004964929E-15    -4.175871745331865E-15   -1.114488897900155E-15   -3.0159164224041127E-17  2.4749259295233353E-12   1.076577252115946E-18
1.45E-5                   -1.0557857183407595E-12  -2.9570315085226753E-12  -2.376467842535471E-12   -4.685813235725127E-13   -1.5381983368587636E-13  -1.9285862224302715E-14  -1.060026366996186E-14   -2.827360434609892E-15   -5.240438998435173E-17   4.878422802465064E-12    4.921374456361229E-18
1.4999999999999999E-5     -2.1018851438789516E-12  -5.4901927418944936E-12  -3.623668937258328E-12   -7.160710296850053E-13   -2.486256951137968E-13   -5.0692276958589015E-14  -2.59083272416792E-14    -7.0594673414395804E-15  -1.8151365020915338E-16  8.989793550030032E-12    1.3020439692971454E-17
1.55E-5                   -3.9998971962077084E-12  -9.69101225825091E-12    -4.802289298042959E-12   -1.3361346836848584E-12  -4.563205716293263E-13   -1.2580927196592421E-13  -5.860727634118497E-14   -1.7225680302730514E-14  -5.339404522561153E-16   1.565688448637064E-11    2.847906332083692E-17
1.6E-5                    -7.269685494606557E-12   -1.6491719935271663E-11  -7.458434661275065E-12   -2.664467777695086E-12   -8.405271986103101E-13   -2.6645274709561313E-13  -1.2641898195163384E-13  -4.049302375370832E-14   -1.3005873795145297E-15  2.5760524368210498E-11   6.988024704880313E-17
1.6499999999999998E-5     -1.2682078527974844E-11  -2.6929083914695366E-11  -1.4293766733552778E-11  -5.000964941329863E-12   -1.2917620109416237E-12  -5.117271466621287E-13   -2.6716627275279366E-13  -9.162442306513884E-14   -2.912572942780406E-15   3.922778434370477E-11    1.8700546566501513E-16
1.7E-5                    -2.119497826666066E-11   -4.114314994112658E-11   -2.6535435862521973E-11  -8.826321901013834E-12   -1.624690059623109E-12   -9.810918853544521E-13   -5.490527231519495E-13   -2.000103019469629E-13   -6.3018060954992184E-15  5.4043758452885146E-11   4.701337901081422E-16
1.75E-5                   -3.342681612449237E-11   -5.721275957524399E-11   -4.2051454412264574E-11  -1.489074952913102E-11   -2.1743383477429057E-12  -1.9090208982369267E-12  -1.0766232877578798E-12  -4.2000336445864595E-13  -1.3778957669130802E-14  6.712637474072295E-11    1.0849667780863435E-15
1.8E-5                    -4.880085944839382E-11   -7.169757362702335E-11   -5.706407118694188E-11   -2.355281100665787E-11   -4.357236304668983E-12   -3.550565040015725E-12   -2.0016881735040963E-12  -8.447682727139504E-13   -3.1032666082203384E-14  7.696873390121738E-11    2.4000965937658598E-15
1.85E-5                   -6.543279795742499E-11   -8.224868753435283E-11   -6.955228175742954E-11   -3.3956285655265326E-11  -1.0131928934578323E-11  -6.041710762531472E-12   -3.5430083427642668E-12  -1.6235600598560975E-12  -6.873431161698003E-14   8.459166213013181E-11    5.2564209169801515E-15
1.8999999999999998E-5     -8.137139582621313E-11   -8.915929893758294E-11   -7.972738761045703E-11   -4.438784044026657E-11   -2.0218603295822716E-11  -9.44779403043011E-12    -5.97710671552853E-12    -2.973672998155363E-12   -1.4215489703810347E-13  9.077661409790094E-11    1.1400341108114727E-14
1.95E-5                   -9.559980737340587E-11   -9.327930472024178E-11   -8.720495022185513E-11   -5.3563092348511705E-11  -3.2693649234569563E-11  -1.3942068333810131E-11  -9.536976717755879E-12   -5.1638341416585425E-12  -2.7429299382738596E-13  9.347170535261387E-11    2.4110145538944258E-14
1.9999999999999998E-5     -1.0695197062167089E-10  -9.326284902658921E-11   -8.962852154885628E-11   -6.09407398272703E-11    -4.381197098992838E-11   -1.965881331515316E-11   -1.4217151131052834E-11  -8.447818503947071E-12   -5.126522594999369E-13   8.982454094148565E-11    4.914779715611704E-14
2.05E-5                   -1.1251622779362872E-10  -8.659699920829619E-11   -8.520126192921811E-11   -6.569193477435836E-11   -5.0672916151483415E-11  -2.6140378474306828E-11  -1.9597855239179198E-11  -1.2953024091293157E-11  -9.529678204117147E-13   7.967266438957809E-11    9.654679260991052E-14
2.1E-5                    -1.0870639857077603E-10  -7.235934047942256E-11   -7.509626936675157E-11   -6.629925406469565E-11   -5.30175301335835E-11    -3.21495515131868E-11    -2.483075575213352E-11   -1.854664236322274E-11   -1.7375067725552102E-12  6.411819743802796E-11    1.8404817048787576E-13
2.1499999999999997E-5     -9.400223122688791E-11   -5.034117686010615E-11   -6.137096094502221E-11   -6.148105297022633E-11   -5.213642254280172E-11   -3.634195988375652E-11   -2.8814702900800594E-11  -2.469998771773956E-11   -3.0117174161974026E-12  4.091599465078739E-11    3.417622749969569E-13
2.2E-5                    -6.894475796314668E-11   -1.8024709978023095E-11  -4.27385926045765E-11    -5.0501926828509647E-11  -4.818661322133655E-11   -3.7849729958773076E-11  -3.0453057134970016E-11  -3.040630561820211E-11   -4.885408914383868E-12   4.2434248467928876E-12   6.146654108609535E-13
2.2499999999999998E-5     -3.297922725061705E-11   2.8563828570365407E-11   -1.4136624265109067E-11  -3.230924093667706E-11   -3.9195741701297683E-11  -3.5733769567429615E-11  -2.887891284337514E-11   -3.428888245923359E-11   -7.455253495871413E-12   -5.063103428578752E-11   1.0586608399141261E-12
2.3E-5                    1.7038765420168988E-11   9.128393187629106E-11    2.9082087772981765E-11   -5.848938176076532E-12   -2.2979536295059194E-11  -2.834595535180715E-11   -2.363953973796976E-11   -3.500531796606127E-11   -1.0834531238057502E-11  -1.247167442739817E-10   1.729828840759332E-12
2.35E-5                   8.434710205222673E-11    1.7013943092006373E-10   8.782909640127145E-11    2.8062121767770854E-11   4.993213802158725E-13    -1.4426072892354546E-11  -1.4856773249063445E-11  -3.178150799475357E-11   -1.503821714129541E-11   -2.1696059040001016E-10  2.668363820796766E-12
2.4E-5                    1.6954436335615312E-10   2.663141769316442E-10    1.6078384860296319E-10   6.687766372112419E-11    2.935715589421489E-11    5.0394448124314774E-12   -3.219279512447157E-12   -2.4635329066398983E-11  -1.9700436836553164E-11  -3.2568568333247027E-10  3.871477967674541E-12
2.45E-5                   2.7134271531884697E-10   3.808275094786901E-10    2.4788783945110926E-10   1.097869271783149E-10    6.218998916684914E-11    2.7372779647732328E-11   1.0451165271935317E-11   -1.4014134399679342E-11  -2.3884490897795674E-11  -4.481500301806669E-10   5.247600975606076E-12
2.4999999999999998E-5     3.8904938941604527E-10   5.098943413016135E-10    3.5076023014211617E-10   1.5995250119705998E-10   9.937460099251739E-11    5.1345626560716473E-11   2.598245212890069E-11    -1.4192239103231777E-13  -2.6294986257911713E-11  -5.811076444812295E-10   6.5714087278571976E-12
2.55E-5                   5.224263574646717E-10    6.456262995512923E-10    4.697882497694034E-10    2.217957469960486E-10    1.416177304062817E-10    7.868549198880658E-11    4.426694751091526E-11    1.730509961276054E-11    -2.5833992859715487E-11  -7.224905429657184E-10   7.497399529553373E-12
2.6E-5                    6.682852623521775E-10    7.82516691600925E-10     6.020260766739846E-10    2.9655459262619096E-10   1.879501543992591E-10    1.1135813373429458E-10   6.659775164582872E-11    3.895016060985777E-11    -2.2047199341919503E-11  -8.7120214704165E-10     7.674118092956352E-12
2.65E-5                   8.1851054260901E-10      9.201141590312443E-10    7.422179408315708E-10    3.8134654035268146E-10   2.360193229775006E-10    1.4809663049227477E-10   9.33664516004006E-11     6.525925339013117E-11    -1.509308495617307E-11   -1.0248207842202785E-9   6.911573786921084E-12
2.7E-5                    9.63785190328966E-10     1.0578780396338353E-9    8.848702678543726E-10    4.715058434145251E-10    2.840858516522955E-10    1.8488999138273455E-10   1.2355020142305316E-10   9.630535261581684E-11    -5.35408074746934E-12    -1.177723815906405E-9    5.27886245849325E-12
2.7499999999999998E-5     1.0995648849057428E-9    1.1896799320362784E-9    1.0245950939821401E-9    5.623577899654291E-10    3.316186787855863E-10    2.1847201198062538E-10   1.5555011221884742E-10   1.3172054791772732E-10   6.897164974642887E-12    -1.3207229308795424E-9   3.0459809813298466E-12
2.8E-5                    1.225524900037486E-9     1.3046020131582605E-9    1.15484741235995E-9      6.493230087122031E-10    3.775911425741889E-10    2.4801351515166186E-10   1.8811712076225703E-10   1.705707574172887E-10    2.1552722057719138E-11   -1.4419934658339167E-9   5.015832586751326E-13
2.8499999999999998E-5     1.3369133267901348E-9    1.3909111625621393E-9    1.267067312867129E-9     7.280758485401547E-10    4.192328231457213E-10    2.736247002339894E-10    2.2009465440305104E-10   2.1121663644475154E-10   3.85558836244619E-11     -1.5291038323119007E-9   -2.243318842148583E-12
2.9E-5                    1.4182824609519434E-9    1.4370043929972102E-9    1.3512549448111303E-9    7.950785920671705E-10    4.533338059207014E-10    2.9470756156153636E-10   2.4970148447395146E-10   2.5151362263978944E-10   5.7806813911780956E-11   -1.5707099302695643E-9   -5.360667674077516E-12
2.95E-5                   1.4486681462038628E-9    1.4294402687073772E-9    1.3972789316323422E-9    8.470400866788841E-10    4.779642500089974E-10    3.0999465645563624E-10   2.7482038134977846E-10   2.8934892719796014E-10   7.914486157030398E-11    -1.5559678816773244E-9   -9.255505394318496E-12
2.9999999999999997E-5     1.4124061114891178E-9    1.3530364550265882E-9    1.3956574682837086E-9    8.791220673203077E-10    4.913990546843697E-10    3.177670783949872E-10    2.938724490672211E-10    3.2292064480963703E-10   1.0238181611086642E-10   -1.4724465029065308E-9   -1.4366767854125167E-11
3.05E-5                   1.3024935349174307E-9    1.194621478834358E-9     1.3370357242871153E-9    8.835961954086685E-10    4.893507330250951E-10    3.15317241540606E-10     3.0554113526267095E-10   3.503092820911304E-10    1.2735630152588154E-10   -1.3054999915356046E-9   -2.094324331007354E-11
3.1E-5                    1.114091004787536E-9     9.459751688210433E-10    1.2105865465142183E-9    8.50321016364868E-10     4.6474040817777064E-10   2.991158522573337E-10    3.073376851187964E-10    3.688286124300984E-10    1.5394250012451057E-10   -1.04016520689503E-9     -2.8980393153210917E-11
3.15E-5                   8.384347031993273E-10    6.018919872254351E-10    1.0027927813528195E-9    7.688089188733445E-10    4.1087817186821393E-10   2.6622888234433537E-10   2.950624485509813E-10    3.750764117061161E-10    1.8189909688341854E-10   -6.637133995589797E-10   -3.8356727342143985E-11
3.2E-5                    4.6479873825961086E-10   1.5590705881539836E-10   6.985249932897923E-10    6.30660264201511E-10     3.239924655934508E-10    2.1504826042087268E-10   2.6416583531605763E-10   3.6564995299351474E-10   2.1051402845853527E-10   -1.6696848025656032E-10  -4.8961214249575456E-11
3.25E-5                   -1.3773657582582988E-11  -4.0021795232800885E-10  2.8481127551049427E-10   4.311033382511621E-10    2.0220942843797515E-10   1.4422030598001563E-10   2.1145311268633387E-10   3.373978080161935E-10    2.3820988744677627E-10   4.5529318068059535E-10   -6.058997082436726E-11
3.2999999999999996E-5     -5.988678990294782E-10   -1.071484324634736E-9    -2.450004313710172E-10   1.6902805040506997E-10   4.347212201456553E-11    5.1534553781070405E-11   1.3539764522358906E-10   2.8673651360920904E-10   2.624551175247248E-10    1.203329906520388E-9     -7.268964009093833E-11
3.35E-5                   -1.2892593419274379E-9   -1.8535354972882106E-9   -8.898659997748828E-10   -1.5417914844603065E-10  -1.5380979051942044E-10  -6.540109647729754E-11   3.545329406653009E-11    2.0926185477151545E-10   2.802114724474646E-10    2.0707319344705974E-9    -8.42656860009894E-11
3.4E-5                    -2.0814097379125057E-9   -2.730552778002076E-9    -1.6430118994123453E-9   -5.361552307911397E-10   -3.879800832001544E-10   -2.0750665099166274E-10  -8.821843564893176E-11   1.0086422199984242E-10   2.8868157205391065E-10   3.0438964871736373E-9    -9.413116617785795E-11
3.45E-5                   -2.965493184860291E-9    -3.6781397978288025E-9   -2.4943392837393477E-9   -9.74449395645921E-10    -6.529946078588052E-10   -3.7342785616976427E-10  -2.3442430106338367E-10  -4.053076788138082E-11   2.8572980350226296E-10   4.1032047438703744E-9    -1.0131509073295429E-10
3.5E-5                    -3.921336506655034E-9    -4.668075666921579E-9    -3.4302750598642677E-9   -1.4657867997920995E-9   -9.403620503914182E-10   -5.597188518372672E-10   -4.0092714070546353E-10  -2.1450057152185326E-10  2.695817130551367E-10    5.223316027846138E-9     -1.0527420061433525E-10
3.5499999999999996E-5     -4.918515008977125E-9    -5.670602735092036E-9    -4.431351883600557E-9    -2.0036482238001076E-9   -1.2417138738260254E-9   -7.608417331372984E-10   -5.848229096635963E-10   -4.191497496448649E-10   2.3811184233222265E-10   6.371082201823786E-9     -1.0569390624730058E-10
3.6E-5                    -5.919481673217441E-9    -6.652103514689919E-9    -5.470072216769151E-9    -2.5761482709200093E-9   -1.549246911873932E-9    -9.68826804999901E-10    -7.822396591414118E-10   -6.519969442840193E-10   1.8839423501633413E-10   7.504006687807031E-9     -1.0198694187455902E-10
3.65E-5                   -6.882071046015503E-9    -7.570588830055497E-9    -6.5105033279966574E-9   -3.1666156517473022E-9   -1.85408201888854E-9     -1.1739014629947548E-9   -9.871982935435943E-10   -9.096448073927035E-10   1.1685423835739666E-10   8.571921084810855E-9     -9.288803663021839E-11
3.7E-5                    -7.759701490128497E-9    -8.374381930021528E-9    -7.50904056874758E-9     -3.7561635653037346E-9   -2.1445430580252313E-9   -1.3666700141110618E-9   -1.1913914859350287E-9   -1.1867174973174936E-9   1.9901471435208646E-11   9.5194326559371E-9       -7.654322079641041E-11
3.75E-5                   -8.5001097066776E-9      -9.006446202538013E-9    -8.415522964657207E-9    -4.32460975033553E-9     -2.4057415417927844E-9   -1.5399288989005468E-9   -1.386022346860278E-9    -1.474937632581628E-9    -1.0515334466087575E-10  1.0285958664212623E-8    -5.109632810873864E-11
3.7999999999999995E-5     -9.04465191979169E-9     -9.410204026661705E-9    -9.17448681644447E-9     -4.848186494752795E-9    -2.6203371813230348E-9   -1.6873956255980409E-9   -1.5635258258072658E-9   -1.7627729231593881E-9   -2.5910570798963127E-10  1.0805288632378439E-8    -1.533437742580054E-11
3.85E-5                   -9.330259995648363E-9    -9.530941037907405E-9    -9.72630036304589E-9     -5.297104882917299E-9    -2.7698910175199726E-9   -1.799619142986375E-9    -1.7159894231398894E-9   -2.0357998352745153E-9   -4.402517472829861E-10   1.1008229323111164E-8    3.103264574086471E-11
3.9E-5                    -9.294256507265259E-9    -9.313285369121112E-9    -1.0008111016394073E-8   -5.6363972543097856E-9   -2.8365232269890263E-9   -1.861191356585791E-9    -1.831327777406843E-9    -2.2775334764960988E-9   -6.446496649602088E-10   1.08272990761699E-8      8.74927012852706E-11
3.95E-5                   -8.87949638447527E-9     -8.701159648318085E-9    -9.955606009583736E-9    -5.829225297498655E-9    -2.8043151099047903E-9   -1.8530707469040323E-9   -1.892426658761956E-9    -2.4701565842948786E-9   -8.670783942456412E-10   1.0200034589718246E-8    1.5306163939402196E-10
3.9999999999999996E-5     -8.037336884882064E-9    -7.643296163900567E-9    -9.506688659217731E-9    -5.8395279958268165E-9   -2.6595084022186865E-9   -1.7589533315007368E-9   -1.8816816308095245E-9   -2.595144461108466E-9    -1.1018335933485547E-9   9.070804973545855E-9     2.2667339281181875E-10
4.0499999999999995E-5     -6.728985391963108E-9    -6.100101995943048E-9    -8.60626510591186E-9     -5.633207189890933E-9    -2.3896254460456965E-9   -1.5704706769058145E-9   -1.786438902574609E-9    -2.6342746074823057E-9   -1.342671869913907E-9    7.393571548680299E-9     3.0741949743426783E-10
4.1E-5                    -4.927457331623065E-9    -4.047454635407267E-9    -7.209964195121161E-9    -5.179489457909558E-9    -1.983400585753367E-9    -1.287129603476663E-9    -1.5995582618751348E-9   -2.570610594720443E-9    -1.5820419605879082E-9   5.136033086743656E-9     3.9430235967803653E-10
4.15E-5                   -2.620676231278036E-9    -1.4788333655651215E-9   -5.286133824392917E-9    -4.453213613668886E-9    -1.4330255465867749E-9   -9.119388386640271E-10   -1.3158324149739665E-9   -2.38841095754376E-9     -1.8102252421576979E-9   2.2834749826385933E-9    4.85475047719436E-10
4.2E-5                    1.8553575303140646E-10   1.5912933932230437E-9    -2.8177983376286316E-9   -3.436964223332027E-9    -7.374533815360338E-10   -4.473497501545263E-10   -9.301128849673434E-10   -2.072526660493126E-9    -2.014799121567814E-9    -1.1582274641086988E-9   5.775643662371445E-10
4.2499999999999996E-5     3.464950082262743E-9     5.1242548327462435E-9    1.940567817689556E-10    -2.122159641576763E-9    9.599471365012708E-11    1.0480237742939238E-10   -4.3979224212781303E-10  -1.6093881678072671E-9   -2.1805292582309578E-9   -5.1593585389351245E-9   6.657556147575513E-10
4.2999999999999995E-5     7.1678575605335604E-9    9.057163784315862E-9     3.726838063612596E-9     -5.095295396706365E-10   1.0525439596186224E-9    7.396981802212523E-10    1.5188846540861868E-10   -9.899443677978426E-10   -2.2898298615280494E-9   -9.66261921194042E-9     7.445755340256637E-10
4.35E-5                   1.121749281831114E-8     1.3304907046609458E-8    7.734057817156777E-9     1.390123331386267E-9     2.1115416125929187E-9    1.445603437661015E-9     8.356099256740686E-10    -2.1218093995445353E-10  -2.3239826817858706E-9   -1.4580488197686237E-8   8.08617007378619E-10
4.4E-5                    1.550836958938752E-8     1.77600643615206E-8      1.2144482263356887E-8    3.554491534822782E-9     3.2468106010027254E-9    2.202513752809561E-9     1.5978992482489908E-9    7.184219581265756E-10    -2.2649581685050728E-9   -1.9795089264174242E-8   8.526273336878117E-10
4.45E-5                   1.9908530920166022E-8    2.229020268950288E-8     1.686148128266266E-8     5.947979563496857E-9     4.4259103934623414E-9    2.983749768120604E-9     2.421780679151218E-9     1.7891789833630484E-9    -2.0971752581565754E-9   -2.515991877138306E-8    8.71114438482582E-10
4.4999999999999996E-5     2.4264323099628983E-8    2.6737043027635224E-8    2.1762115234918414E-8    8.520405661086744E-9     5.609585463447012E-9     3.75890672564512E-9      3.285234608274553E-9     2.9796124986968797E-9    -1.808500416460585E-9    -3.050192240253707E-8    8.58032624468645E-10
4.5499999999999995E-5     2.8404574334157656E-8    3.0921262301136684E-8    2.66969121008702E-8      1.1207000409827304E-8    6.752175554831341E-9     4.496176107889135E-9     4.15952703253276E-9      4.260695855900339E-9     -1.3903873816602717E-9   -3.562390639269814E-8    8.068985612356477E-10
4.6E-5                    3.214369921993495E-8     3.4651013697050356E-8    3.149153075426985E-8     1.392982943585549E-8     7.803026766120475E-9     5.162822719816433E-9     5.009213253517474E-9     5.5952227576209445E-9    -8.377002602976502E-10   -4.030853740657287E-8    7.112822197335392E-10
4.65E-5                   3.528643389119819E-8     3.772939506254855E-8     3.5950648397743116E-8    1.6600105428311372E-8    8.70880197687425E-9      5.72422018444684E-9      5.793778022855807E-9     6.938719072783907E-9     -1.4879521946913792E-10  -4.432422940622754E-8    5.654433875887621E-10
4.7E-5                    3.763577166663224E-8     3.9959536109291595E-8    3.9863495186280386E-8    1.9120790434634147E-8    9.416508429278724E-9     6.143576764447547E-9     6.47022721999296E-9      8.239650240080043E-9     6.740033206360151E-10    -4.743206173289773E-8    3.6494117756948866E-10
4.7499999999999996E-5     3.9001842843195865E-8    4.115011013594942E-8     4.30101649254943E-8      2.13890964877078E-8      9.876656992336472E-9     6.384371388323918E-9     6.9961394978334E-9       9.439331471214706E-9     1.6236261712532818E-9    -4.939369024721674E-8    1.07127228877887E-10
4.8E-5                    3.9208825345493884E-8    4.112333988852416E-8     4.516836603478912E-8     2.3298682273916966E-8    1.0045763511032143E-8    6.414890755372475E-9     7.332219176308274E-9     1.0472926777145511E-8    2.6871400206503364E-9    -4.9981144109500815E-8   -2.0850579492062824E-10
4.85E-5                   3.810070728315597E-8     3.972446889985167E-8     4.6121186896875006E-8    2.4741833464803034E-8    9.887990844360802E-9     6.211896394952924E-9     7.443059693228905E-9     1.1271860870793808E-8    3.8443351954548184E-9    -4.898818926685451E-8    -5.800389730971155E-10