% Model:              Untitled.mph
% Version:            COMSOL 6.0.0.405
% Date:               Jul 17 2025, 07:49
% Dimension:          1
% Nodes:              401
% Expressions:        11
% Description:        Point graph
% Time (s)                Displacement field, Y component Displacement field, Y component Displacement field, Y component Displacement field, Y component Displacement field, Y component Displacement field, Y component Displacement field, Y component Displacement field, Y component Displacement field, Y component Displacement field, Y component Displacement field, Y component
0                         -4.501293599154493E-37   -4.5832002764616794E-36  -4.520572748319379E-33   -1.2402154545472892E-32  -3.6289821075743395E-32  -3.397841865405876E-32   -5.952696059394218E-32   -6.426856877669214E-31   -3.5463691498922214E-31  4.897621530363517E-35    1.5393276088249663E-30
5.0E-7                    5.475384303530934E-29    5.512401639873088E-28    -3.476818489147465E-24   -8.711300280018667E-24   -3.0778169589195103E-23  1.3066741490043458E-24   5.975649499046436E-23    -4.020728085033989E-23   5.893688159659382E-22    -1.1232784299207688E-26  -1.0408241729039864E-22
1.0E-6                    1.6060793220908041E-29   -1.80602471721755E-28    2.7274743245661434E-23   7.247724685056838E-23    2.140177656259461E-22    5.46608710362487E-23     -1.7642272613595933E-22  2.814503218735982E-22    -4.392743352341037E-21   5.186251548512726E-26    -1.2410927905629053E-21
1.5E-6                    -4.131984579678613E-28   -8.037143433518582E-28   -5.475599472867345E-23   -1.8499311666374052E-22  -3.206774001760614E-22   -2.8506975496351233E-22  -4.844294418638183E-22   -1.7409300521515663E-21  9.234067427708105E-21    -8.845152483869305E-26   6.781461380009096E-21
2.0E-6                    1.5401229813794953E-27   4.0009291634730624E-27   -7.266943067862077E-24   8.721251272697665E-23    -4.95767740101125E-22    5.452039501239755E-22    1.765224916181722E-21    3.287786201315524E-21    3.15787440763483E-20     -3.9474466668618636E-25  -1.8289772826641584E-20
2.4999999999999998E-6     -4.826583735955954E-27   -3.909569127426228E-26   3.3476968783879285E-23   4.569594275381001E-22    4.991375010821044E-22    -1.6176073051264357E-22  1.3246535767436595E-21   -6.580904947996556E-21   -1.3984032302642102E-19  1.2391945434362341E-24   3.573930038538379E-20
3.0E-6                    1.3575634151738765E-26   1.949452518087807E-25    1.951760568006416E-22    -6.621560491799381E-22   4.784393759256918E-21    -1.9540800272338364E-22  -2.1447715252035643E-21  1.8425311741080148E-20   -1.290149900089463E-19   2.0086440124820907E-24   6.706913382630653E-21
3.5E-6                    -2.4543036932220425E-26  -4.641980572406114E-25   4.0559789783444056E-22   -1.8716168416800793E-21  -3.7299020721718554E-21  -1.607896877192683E-22   -1.7727725005720394E-20  -8.323592721254662E-20   1.041107726423799E-18    -7.302954831300459E-24   -2.600171331451263E-19
4.0E-6                    2.419783635887806E-26    1.6557460839609582E-25   -1.797940462364442E-21   3.6408671724581565E-21   -3.170107262971894E-20   -8.886147858378661E-21   -1.057613793687886E-20   -4.0306770291081966E-20  1.0309908588022006E-18   -1.101364690677768E-23   2.5881030054253523E-19
4.5E-6                    3.6131331358273076E-26   2.3256833113035926E-24   -1.3550170942561545E-21  1.7111012815091595E-20   3.24624685806769E-20     1.3907311223486354E-20   7.324712567297915E-20    9.621052188032063E-19    -5.9566613981840714E-18  3.840180686131677E-23    1.2809224485354193E-18
4.9999999999999996E-6     -6.037896760253024E-25   -6.040802175756361E-24   6.98945939873572E-21     -2.4968491342816958E-20  1.4977684369755968E-19   4.3777386089372807E-20   -1.3557753723695878E-20  -4.2726636065266516E-19  -8.418269477220444E-18   2.1457208913808375E-23   -6.79708010418371E-19
5.5E-6                    1.6206459344759152E-24   -1.1235547402004556E-24  2.152415520990082E-21    -1.1756695578433125E-19  -1.156993638428514E-19   -5.81219051096837E-20    -1.8052942793172203E-19  -6.13016501105861E-18    2.4242162758693948E-17   -1.8970961801714922E-22  -4.11708983990574E-18
6.0E-6                    3.324312180411155E-24    2.922685302886444E-23    -2.3152327313164618E-20  9.152196729277191E-20    -5.947964679939268E-19   -1.805241403376395E-19   3.05497291101085E-19     1.1828073307380581E-18   4.634646856522442E-17    1.816475496131935E-22    3.810933233402402E-19
6.5E-6                    -1.6022722142813724E-23  -2.205856303748719E-23   -2.4175939573594575E-21  5.945917670741266E-19    -6.219335768927598E-20   -1.0210254050393772E-19  -3.7979260358921955E-19  2.833309074942541E-17    -6.513257905738736E-17   1.2558330835892272E-21   1.0651852051171355E-17
7.0E-6                    -1.580397752725043E-23   -8.962725005665456E-23   9.176225522647421E-20    -1.8195254136516314E-20  1.4982694958664665E-18   2.308981140299433E-19    -4.300372015386256E-18   6.5830057373950106E-18   -1.7615950734433364E-16  -1.8634564777756776E-21  2.143971987638771E-17
7.499999999999999E-6      9.766359082152479E-23    7.509925786614795E-23    4.0062288998893077E-20   -2.165754108608124E-18   2.277397783581565E-18    1.3191339765064794E-18   -1.888401376354941E-18   -1.0618951774902603E-16  7.97809930364463E-17     -9.563834511002064E-21   3.8088741825724135E-17
8.0E-6                    9.055576532839787E-23    2.1641023835499623E-22   -4.019672487959642E-19   -1.6135484979275275E-18  1.6054229321321037E-19   1.1532835759937376E-18   1.2969695616630725E-17   -9.634804338023582E-17   3.964154024847281E-16    6.679378582754472E-21    -1.2162792890711848E-17
8.5E-6                    -4.571595922815015E-22   1.473222673444819E-22    -5.188069261539956E-19   4.8468259888127705E-18   -9.286503755115795E-18   -7.287905338058698E-18   5.722573350038698E-18    2.45476874516137E-16     -6.816002446303336E-18   6.007186406455901E-20    -1.4667862568513879E-16
9.0E-6                    -5.505520967861214E-22   -3.776236373646695E-22   1.4261915166976E-18      8.167540488770761E-18    -2.0593324578349817E-17  -1.717618297112383E-17   -4.271586549746059E-17   4.141143374269776E-16    -4.2831286303353195E-16  1.4143315945438286E-20   1.8033572076129795E-16
9.499999999999999E-6      1.701256220187808E-21    -2.8058160693946357E-21  3.651199724868171E-18    -4.022236040015039E-18   4.140446495157715E-18    4.577939443267943E-18    -5.2842542890493714E-17  -3.719167846115216E-16   8.486135226418751E-17    -2.740677721540019E-19   1.456241212627126E-15
9.999999999999999E-6      2.9623464022295357E-21   -2.9694063132693E-22     -3.48451295675392E-18    -1.940115979395829E-17   7.241292691100432E-17    4.9953398028396224E-17   -3.384688736856422E-17   -1.3639218840665872E-15  -1.1497081064993493E-15  -3.1111493715183275E-19  2.0872898571734424E-15
1.05E-5                   -4.899735812987845E-21   1.7290839011222584E-20   -2.0477092990946242E-17  -8.563945029962297E-18   5.72327945108748E-17     1.7025604026688688E-17   -1.8892158790660823E-16  -5.569238431045969E-16   -4.860707271544071E-15   8.302619744918778E-19    1.5509491047994758E-16
1.1E-5                    -1.3415712966272294E-20  6.5495549825641404E-21   -6.595390060892791E-18   1.3266128428597349E-17   -1.2361118138436006E-16  -1.3251575854076057E-16  -2.8944628023326304E-16  1.7029368392497903E-15   -4.2243908064643146E-16  1.9920466274942107E-18   7.934195197616897E-16
1.15E-5                   9.569367645752641E-21    -7.949916827418782E-20   7.684411355668437E-17    -1.723032496002285E-17   -2.0420899459065914E-16  -2.474479656138379E-16   2.5856536845640976E-16   1.9004702828542083E-15   1.578465101844498E-14    -1.0263856301525117E-18  1.5332332403910392E-14
1.2E-5                    5.190726000105087E-20    -4.410868832867526E-20   1.0988811647988662E-16   -5.538343762605659E-17   -1.5203078016927322E-17  -2.870066689848157E-16   2.25282713369886E-16     -1.5114863063636178E-15  9.765078846297371E-15    -7.736289317544023E-18   4.264936900542078E-14
1.2499999999999999E-5     -1.972882515120907E-21   3.041928934774822E-19    -1.649103373366948E-16   1.2538734669247429E-16   -1.841665159902711E-16   -4.55728096714423E-16    -3.2588416171785155E-15  -6.7632785183624525E-15  -5.167658066252512E-14   -4.2193957192881714E-18  6.192229972496869E-14
1.3E-5                    -1.785705162101193E-19   1.967223366401245E-19    -6.062284375956071E-16   4.619069534981467E-16    -9.507575173576198E-16   -5.159190193449717E-16   -8.618636796071925E-15   -1.541329358068348E-14   -1.0920178540553744E-13  2.0069926472991835E-17   7.380884368634321E-14
1.35E-5                   -1.0464331704105555E-19  -1.2104437417047212E-18  -2.5798635882784493E-16  -1.4895809224214645E-17  -4.34392174938985E-16    1.0235006894360263E-16   -9.428066959750762E-15   -2.891652420926113E-14   -4.8311420295786086E-14  3.361081252777408E-17    1.5352010070200714E-13
1.4E-5                    5.356778952873219E-19    -1.4063932041438132E-18  1.4693293125687868E-15   -2.1656248931051902E-15  2.3205396304314084E-15   -4.227207257101717E-16   -9.376847623169597E-15   -3.303451605715271E-14   8.860747461183624E-14    -2.1127783862102976E-17  4.209292997272558E-13
1.45E-5                   6.878835074416583E-19    3.1783840732238743E-18   2.521692667078176E-15    -3.8273702813047275E-15  1.8307844021112814E-15   -8.326208255711715E-15   -2.9030773903367E-14     -1.580109645671793E-14   2.6817770426817832E-14   -1.0917117976328894E-16  9.193312438684615E-13
1.4999999999999999E-5     -1.3721973922575994E-18  5.546285020268698E-18    -9.76623873744799E-16    7.01897682902135E-17     -9.557133676590102E-15   -2.865014438059736E-14   -8.07328811705982E-14    -2.9535082843356245E-14  -4.463372424195947E-13   -4.404043535832359E-17   1.5611419674053988E-12
1.55E-5                   -3.3876208428043624E-18  -9.533576230023106E-18   -8.340666553287215E-15   9.230033163831142E-15    -2.8134817317875253E-14  -5.2772287868213614E-14  -1.5127754943031486E-13  -1.9034678378365505E-13  -1.1584602478407888E-12  2.6554339101310207E-16   2.3286797365160186E-12
1.6E-5                    1.5121973129909436E-18   -3.2175957235346343E-17  -9.729424795008159E-15   9.500666177881638E-15    -3.763141739420704E-14   -5.874924946655663E-14   -2.435349154235648E-13   -5.400393350900683E-13   -1.7038545911567798E-12  4.585670916482282E-16    3.6903108875475156E-12
1.6499999999999998E-5     1.0948661343845941E-17   -1.781590547258512E-17   4.584695318705005E-15    -1.6368283209060882E-14  -2.811595608567001E-14   -5.1989430192636636E-14  -4.2899087156463387E-13  -9.425176196652866E-13   -1.9720778332804978E-12  -1.0037423511685893E-17  6.837270231986979E-12
1.7E-5                    2.3806287843390286E-18   3.249398695132617E-17    2.4729908762446655E-14   -5.823690335451428E-14   -1.423378186725281E-14   -1.2650524201479178E-13  -8.323660582165111E-13   -1.2737624830036086E-12  -2.527788338516247E-12   -7.953209774724134E-16   1.3264429693692364E-11
1.75E-5                   -3.4994235760047827E-17  -5.01878429626635E-18    1.8517857110560876E-14   -6.806949378225794E-14   -4.5131389052408866E-14  -4.4117517260958585E-13  -1.6055793802660191E-12  -1.8170209110658336E-12  -4.60443971897645E-12    -2.11362731388799E-16    2.377986783604314E-11
1.8E-5                    -4.950154530879733E-17   -2.6338742381802446E-16  -3.466505077371142E-14   -9.055526578145234E-15   -2.059933338179913E-13   -1.0480285721245018E-12  -2.993034803601092E-12   -3.3959678204771776E-12  -9.72968109543475E-12    2.9823983759669904E-15   3.784080996866691E-11
1.85E-5                   2.220200278291047E-17    -6.690783247130726E-16   -1.0124537737423372E-13  6.732688384558865E-14    -5.55456895659969E-13    -1.7820942892318856E-12  -5.391592909239321E-12   -6.9395911663247105E-12  -1.8906917680241512E-11  7.004224589156386E-15    5.397133177541192E-11
1.8999999999999998E-5     8.457936110422738E-17    -1.0375480002893398E-15  -1.050960598730411E-13   1.646434410614574E-14    -9.852765832566435E-13   -2.5655613843828097E-12  -9.216558660373377E-12   -1.2758884030831532E-11  -3.163920605809971E-11   8.214155008942928E-15    7.061467449784904E-11
1.95E-5                   -1.2744859052068975E-16  -1.610916261202824E-15   -1.4200516771587206E-14  -2.7399631609745174E-13  -1.2364947658078903E-12  -3.9819224992522856E-12  -1.4634662821985962E-11  -2.0176101223986696E-11  -4.577650372226236E-11   7.718984871739436E-15    8.600775536471909E-11
1.9999999999999998E-5     -6.645157062980472E-16   -3.500167940347723E-15   7.767810354594723E-14    -7.204053873484461E-13   -1.3273671544585776E-12  -7.245128379400352E-12   -2.140227068167921E-11   -2.787333951126231E-11   -5.874063172546756E-11   1.692166954116334E-14    9.723102257675914E-11
2.05E-5                   -1.0617577212574365E-15  -8.50409769039493E-15    -2.4734468158622863E-15  -1.048902149544774E-12   -2.0288160888433752E-12  -1.3030630170407015E-11  -2.8836083602597643E-11  -3.462285693947681E-11   -6.911549794206087E-11   5.252764970522245E-14    1.0047288159499026E-10
2.1E-5                    -1.0300485116509239E-15  -1.870898207810094E-14   -3.2046595754049176E-13  -1.0930250888632498E-12  -4.514276207342773E-12   -2.0230037366227492E-11  -3.5781320119942356E-11  -3.965397657304744E-11   -7.696360200241611E-11   1.2264883423930638E-13   9.322795223112907E-11
2.1499999999999997E-5     -1.863589500624416E-15   -3.704747414472371E-14   -6.923294838108555E-13   -1.189379807396111E-12   -9.117951792352586E-12   -2.6447976923698552E-11  -4.06651772875338E-11    -4.241821648765868E-11   -8.249533519672189E-11   2.2216112902479411E-13   7.585395810129553E-11
2.2E-5                    -6.4305060221500415E-15  -6.967137307243607E-14   -8.152473671334105E-13   -2.191932005698333E-12   -1.460218731484194E-11   -3.023320254798809E-11   -4.184311300660508E-11   -4.236684996819968E-11   -8.429125081079904E-11   3.5409280702035795E-13   5.0057712655897115E-11
2.2499999999999998E-5     -1.6512494625445494E-14  -1.2963968446897013E-13  -6.453087863078465E-13   -4.825179667571271E-12   -1.9152688422953962E-11  -3.2504855663171753E-11  -3.811231377920287E-11   -3.9164475118260586E-11  -7.864827132362331E-11   5.649756902007345E-13    1.6176252474161777E-11
2.3E-5                    -3.0949149243250737E-14  -2.3997823024282656E-13  -6.409058103273346E-13   -8.85044234608861E-12    -2.2155157113603758E-11  -3.509833373347957E-11   -2.9031058708078998E-11  -3.27027467843543E-11    -6.088038308474093E-11   9.530369969642379E-13    -2.6995452614916234E-11
2.35E-5                   -5.068477409798656E-14   -4.344504927840164E-13   -1.4944607494665126E-12  -1.3028330495242232E-11  -2.4580762108234652E-11  -3.786698547872681E-11   -1.493268796147889E-11   -2.2418929150620398E-11  -2.797574097164905E-11   1.6205165361636748E-12   -8.010166822412143E-11
2.4E-5                    -8.98417868863618E-14    -7.568485395266217E-13   -3.4943031735479717E-12  -1.618866781467764E-11   -2.7499783103654054E-11  -3.783817080975063E-11   3.276060373768001E-12    -6.990243154340491E-12   1.94436690515524E-11     2.594818354575294E-12    -1.427694405312168E-10
2.45E-5                   -1.7951043938784478E-13  -1.259939214367241E-12   -6.17683678299689E-12    -1.831932102770766E-11   -3.055537438834316E-11   -3.15351614047896E-11    2.459630366184829E-11    1.4518631399988433E-11   7.771159577695594E-11    3.780460141281676E-12    -2.1576468477958462E-10
2.4999999999999998E-5     -3.522386202646932E-13   -1.9995135457590178E-12  -8.733676392319115E-12   -2.0269852757375962E-11  -3.19876241035024E-11    -1.773460087429623E-11   4.8663731178052415E-11   4.14602324255311E-11     1.4271349872051035E-10   4.978879011991905E-12    -3.0182386713511513E-10
2.55E-5                   -6.21133685541896E-13    -3.014758309506085E-12   -1.0778019385556775E-11  -2.2247933111293697E-11  -2.9743482359869015E-11  2.3882664001749845E-12   7.615123145985349E-11    7.257853827633613E-11    2.1206441448421392E-10   5.956641811708426E-12    -4.0266435256432315E-10
2.6E-5                    -9.90859719423267E-13    -4.294618229592732E-12   -1.2541123358349579E-11  -2.2965558597705677E-11  -2.2379957079186897E-11  2.743155478253309E-11    1.0821028758810228E-10   1.0807994962311121E-10   2.855496127392916E-10    6.518778445378028E-12    -5.154925335092574E-10
2.65E-5                   -1.5103899137654595E-12  -5.7427630354470744E-12  -1.417358879379011E-11   -2.0696351602938812E-11  -9.371411350960114E-12   5.7448457402275904E-11   1.4515133498151772E-10   1.4935135680672148E-10   3.6462911378047697E-10   6.558657098678836E-12    -6.333532441223593E-10
2.7E-5                    -2.30384777480049E-12    -7.152721679585884E-12   -1.500156562527453E-11   -1.5081271032052895E-11  8.900177508649668E-12    9.340976483127978E-11    1.8538345184528583E-10   1.96199690945297E-10     4.5163962220298134E-10   6.0660973588230475E-12   -7.485151705647487E-10
2.7499999999999998E-5     -3.4901347067696337E-12  -8.20214286407667E-12    -1.3832869207036393E-11  -7.350085791160415E-12   3.1428576978649345E-11   1.353901553328337E-10    2.2557572099491203E-10   2.457420460494919E-10    5.479141690400504E-10    5.079206361124993E-12    -8.548995253117245E-10
2.8E-5                    -5.007227586530802E-12   -8.499090191487377E-12   -1.0169945657300951E-11  1.5540340368983433E-12   5.71414326513594E-11     1.8149882945002467E-10   2.6223018958281787E-10   2.9489678390141557E-10   6.507807643093217E-10    3.59837097094526E-12     -9.482416258081709E-10
2.8499999999999998E-5     -6.514285646738304E-12   -7.725606863875658E-12   -4.8673425317299156E-12  1.2753453606579922E-11   8.536690509809869E-11    2.2851841983362546E-10   2.9374315666716635E-10   3.4284604637653175E-10   7.517547757701726E-10    1.5221607821881033E-12   -1.0254582623539672E-9
2.9E-5                    -7.546114919663554E-12   -5.837283066274744E-12   8.113935963314137E-13    2.8770918590831354E-11   1.1591328003994523E-10   2.735667190016566E-10    3.210747176772423E-10    3.899368718612538E-10    8.383123219523307E-10    -1.3508363885667797E-12  -1.0833140163350003E-9
2.95E-5                   -7.860089772598241E-12   -3.132440649688361E-12   6.8562616571988526E-12   5.0861471627639706E-11   1.4889784110017078E-10   3.1523552279571443E-10   3.4569702615271603E-10   4.349871706917352E-10    8.985287765739819E-10    -5.269232877371366E-12   -1.1153853643765121E-9
2.9999999999999997E-5     -7.661606634916453E-12   -2.0149794325562243E-14  1.4907147981162462E-11   7.722908897002218E-11    1.844695329974202E-10    3.5313570681299563E-10   3.661553340521804E-10    4.747449527881906E-10    9.250893529370299E-10    -1.0453574427952374E-11  -1.10936428644683E-9
3.05E-5                   -7.429899066231793E-12   3.401655265671982E-12    2.6685590610106937E-11   1.0415667414588779E-10   2.223727244530041E-10    3.862566736808884E-10    3.7679624369205204E-10   5.050587026929395E-10    9.156695801879607E-10    -1.699104149028458E-11   -1.0488661106632824E-9
3.1E-5                    -7.418826540635341E-12   7.574186048488989E-12    4.2054860491984294E-11   1.289214535150128E-10    2.61544408790604E-10     4.116729790419169E-10    3.7055991821703526E-10   5.209508367267919E-10    8.696875730282046E-10    -2.471109247381575E-11   -9.196467833204774E-10
3.15E-5                   -7.246997750581116E-12   1.3245911763701125E-11   5.882844918531523E-11    1.5159080875531655E-10   3.0013874559542503E-10   4.246837294633372E-10    3.4324007830183624E-10   5.158895611015648E-10    7.841714710019182E-10    -3.3143947567770696E-11  -7.143199025640263E-10
3.2E-5                    -5.96634843036736E-12    2.0955999671266905E-11   7.45413150210221E-11     1.742010075920125E-10    3.358591357779994E-10    4.2005729373565034E-10   2.9462178161130397E-10   4.828578178788593E-10    6.518076635041915E-10    -4.167924646642456E-11   -4.309449996510951E-10
3.25E-5                   -2.59783153401277E-12    3.0670004016911034E-11   8.831845278462024E-11    1.9844257762399445E-10   3.6601534561464357E-10   3.9333615395288374E-10   2.2519950216211597E-10   4.1700623248377186E-10   4.6215360956698047E-10   -4.9880401011114547E-11  -6.81266596506517E-11
3.2999999999999996E-5     3.299034454630691E-12    4.1804009165342193E-11   1.0105395249846685E-10   2.2394301093304114E-10   3.8724237282675156E-10   3.4148657151329607E-10   1.321180965214008E-10    3.166727475811109E-10    2.048193863799023E-10    -5.770682474176898E-11   3.7705099081759697E-10
3.35E-5                   1.1495320422033001E-11   5.350690832561123E-11    1.1401366099475681E-10   2.481446591103E-10       3.9547959931124857E-10   2.626381100366037E-10    9.004491986788486E-12    1.813888260579285E-10    -1.2686787680083854E-10  -6.539333649490674E-11   9.06165054324551E-10
3.4E-5                    2.1461013699586164E-11   6.495174455698919E-11    1.2740710716653386E-10   2.6732015287088604E-10   3.863895383165991E-10    1.5510462473038644E-10   -1.4957618373066258E-10  9.287575371745454E-12    -5.327112628582574E-10   -7.299580650949314E-11   1.5155054827390696E-9
3.45E-5                   3.282104738394507E-11    7.55041043780346E-11     1.4007014969686623E-10   2.777313662696521E-10    3.5564541339810896E-10   1.67056055476418E-11     -3.430340143737566E-10   -2.0303269483526551E-10  -1.0046429904084792E-9   -7.992615339147956E-11   2.194972497763754E-9
3.5E-5                    4.545610291042996E-11    8.472420254741792E-11    1.5003392982376302E-10   2.762644182900461E-10    2.9890163461763107E-10   -1.54396257029874E-10    -5.637815214425922E-10   -4.576904829065617E-10   -1.529667829365162E-9    -8.487305520338946E-11   2.929041343437354E-9
3.5499999999999996E-5     5.924883187063942E-11    9.218376260257785E-11    1.5509738201111665E-10   2.605001666162699E-10    2.1216440249640242E-10   -3.5778092751129564E-10  -8.012047650092986E-10   -7.519336458798492E-10   -2.0953854541714238E-9   -8.62277235750581E-11    3.696739555385355E-9
3.6E-5                    7.38624361082073E-11     9.719401046946331E-11    1.530219669427665E-10    2.2858538874509998E-10   9.291807745537501E-11    -5.900228265198515E-10   -1.0468344268923706E-9   -1.076855494341651E-9    -2.692802060829116E-9    -8.271295994556849E-11   4.470654162560908E-9
3.65E-5                   8.880360238590942E-11    9.869240564059041E-11    1.4167676210788397E-10   1.79116580929978E-10     -5.896645260919312E-11   -8.46228780130413E-10    -1.2962324071029277E-9   -1.4198327190151385E-9   -3.3125787619329726E-9   -7.372307311934296E-11   5.21780558261761E-9
3.7E-5                    1.0357437604999592E-10   9.546613319913855E-11    1.1945817927556174E-10   1.1084721173315641E-10   -2.4166175433622456E-10  -1.1217824979762201E-9   -1.5464064302340363E-9   -1.7686093816888614E-9   -3.9375993829919795E-9   -5.912443948261478E-11   5.902616197398832E-9
3.75E-5                   1.1756323312116255E-10   8.657366036456574E-11    8.575956518397263E-11    2.217091044879365E-11    -4.527425036883402E-10   -1.4115157291849176E-9   -1.7912083100382895E-9   -2.113008869977611E-9    -4.53877377885781E-9     -3.874720289617884E-11   6.488344871056077E-9
3.7999999999999995E-5     1.2967158700592556E-10   7.159717886313463E-11    4.098978331377455E-11    -8.898935584390773E-11   -6.899085635623935E-10   -1.7067679379133E-9      -2.018233476472037E-9    -2.442660329755559E-9    -5.077343766275857E-9    -1.207347130375984E-11   6.935279081992114E-9
3.85E-5                   1.3809416262145448E-10   5.049986553467322E-11    -1.3991141169462113E-11  -2.2417961145393776E-10  -9.50216743308581E-10    -1.9936063302903103E-9   -2.2093085496835667E-9   -2.7434101348678405E-9   -5.510709282606888E-9    2.1579559453941177E-11   7.199167449882277E-9
3.9E-5                    1.4066194162371686E-10   2.3231683840582912E-11   -7.856819808310393E-11   -3.8267513788113987E-10  -1.2284810511170015E-9   -2.254074927273003E-9    -2.344055376112011E-9    -2.996191748528118E-9    -5.797297235936483E-9    6.258189232912409E-11    7.233366534382467E-9
3.95E-5                   1.3565981692695046E-10   -1.056318448986618E-11   -1.525865920290055E-10   -5.604130499230047E-10   -1.5160897535888989E-9   -2.4689717167266513E-9   -2.4037616477449717E-9   -3.17922553658453E-9     -5.898984727695451E-9    1.1070219685651289E-10   6.99304122530022E-9
3.9999999999999996E-5     1.2246458041489662E-10   -5.151424542825211E-11   -2.3588889975519255E-10  -7.505818409897108E-10   -1.8009529989591861E-9   -2.619726162001782E-9    -2.372886893215361E-9    -3.2712864840700514E-9   -5.781819143469147E-9    1.6524737309080693E-10   6.437963981678188E-9
4.0499999999999995E-5     1.0129077235483855E-10   -1.0021957446350036E-10  -3.275644618691877E-10   -9.453819487132377E-10   -2.06848673723496E-9     -2.6887374158402465E-9   -2.2383930122087047E-9   -3.253328560965911E-9    -5.415687282187928E-9    2.2534776715611707E-10   5.534129059462134E-9
4.1E-5                    7.205601163283586E-11    -1.5686087280857396E-10  -4.2551851232578986E-10  -1.1376089384374566E-9   -2.302948486655041E-9    -2.659035519055997E-9    -1.98938324707433E-9     -3.107708288169382E-9    -4.773712315969381E-9    2.898991577682316E-10    4.256479651110939E-9
4.15E-5                   3.338035063887406E-11    -2.2090932658837872E-10  -5.266229432967098E-10   -1.3211262019942803E-9   -2.4882300680728105E-9   -2.514090955593573E-9    -1.618096109650895E-9    -2.8168172751760163E-9   -3.833066701995535E-9    3.570602299872119E-10    2.5924883501311026E-9
4.2E-5                    -1.7088539043432597E-11  -2.910458344698064E-10   -6.271344131314752E-10   -1.4901535156360092E-9   -2.6076806285852E-9      -2.238243308919046E-9    -1.1205303841999226E-9   -2.363876949613525E-9    -2.578270458018554E-9    4.2378919661052667E-10   5.44557453733651E-10
4.2499999999999996E-5     -8.100684767436509E-11   -3.653449449492625E-10   -7.228266372824482E-10   -1.6377934909480634E-9   -2.6435535220264585E-9   -1.818103472013651E-9    -4.955999807289172E-10   -1.736544476804815E-9    -1.0055971527295375E-9   4.860030720629443E-10    -1.8687888077176478E-9
4.2999999999999995E-5     -1.5780043505312383E-10  -4.4155394327264297E-10  -8.086364722284118E-10   -1.7544869689386747E-9   -2.577253311862945E-9    -1.2446693796126087E-9   2.552205724940287E-10    -9.307746189436778E-10   8.740809521464253E-10    5.393613508742528E-10    -4.6114015830085E-9
4.35E-5                   -2.4482725263663295E-10  -5.170834961241671E-10   -8.78227478121646E-10    -1.8273553895003737E-9   -2.3909170139653884E-9   -5.150526456226638E-10   1.1257283294195436E-9    4.790918318582348E-11    3.03497524516442E-9      5.799987579906423E-10    -7.627830358518996E-9
4.4E-5                    -3.3913610065329316E-10  -5.885085282815778E-10   -9.24112544060352E-10    -1.8411831687497296E-9   -2.0696277555678736E-9   3.66930194987811E-10     2.1017748602217787E-9    1.1856155536795129E-9    5.436878611494254E-9     6.045366905656046E-10    -1.0843152855175424E-8
4.45E-5                   -4.3904276016843605E-10  -6.509694628898308E-10   -9.385723193975263E-10   -1.7807681156952422E-9   -1.6031134450574498E-9   1.3905718711949645E-9    3.1600051025076595E-9    2.461604584546248E-9     8.024297187554992E-9     6.094538160088376E-10    -1.4164806183107558E-8
4.4999999999999996E-5     -5.439294431088024E-10   -6.982093754741498E-10   -9.149138230244593E-10   -1.633331871078016E-9    -9.864910743300678E-10   2.537294073935238E-9     4.268843377785845E-9     3.8489947510389804E-9    1.0724404681274881E-8    5.905881423696259E-10    -1.748519775598663E-8
4.5499999999999995E-5     -6.524989181757571E-10   -7.235198619232556E-10   -8.482899941432927E-10   -1.3898216956448508E-9   -2.204674714509959E-10   3.779183303152235E-9     5.389765630344429E-9     5.314811634853307E-9     1.3446669620169135E-8    5.434001292008512E-10    -2.0683983910245176E-8
4.6E-5                    -7.611355101815318E-10   -7.209945215932672E-10   -7.356649688108505E-10   -1.045090027416142E-9    6.885088192073093E-10    5.078750488817803E-9     6.478439907243917E-9     6.8191793207879874E-9    1.608664448203408E-8     4.6383199770422086E-10   -2.362996240687943E-8
4.65E-5                   -8.6363532355305E-10     -6.86191237300158E-10    -5.752218856757818E-10   -5.976855812477716E-10   1.728053142773496E-9     6.390662543133847E-9     7.487115618109457E-9     8.313679111402772E-9     1.8532622557574247E-8    3.4906589223549563E-10   -2.6183146968954827E-8
4.7E-5                    -9.521288095041391E-10   -6.159264749868482E-10   -3.6591432284595506E-10  -4.966268208919677E-11   2.8796451638924134E-9    7.664030187332243E-9     8.36798425084734E-9      9.740666761948291E-9     2.0670736314221962E-8    1.9773963741490376E-10   -2.8197954673885563E-8
4.7499999999999996E-5     -1.0182516351977926E-9   -5.077308964735521E-10   -1.076475719447832E-10   5.936417155908295E-10    4.1182357041647526E-9    8.843503443420605E-9     9.074888049605364E-9     1.1035486230251875E-8    2.2386010972436578E-8    9.804342284464891E-12    -2.952863406465298E-8
4.8E-5                    -1.054017394124465E-9    -3.596157085698816E-10   1.979717910699972E-10    1.3236455895162198E-9    5.411418094031136E-9     9.869361177293513E-9     9.562168961769887E-9     1.213072162322028E-8     2.356228484056793E-8     -2.1352002315949138E-10  -3.003727872152854E-8
4.85E-5                   -1.052378939847998E-9    -1.7027608922904734E-10  5.467639818931787E-10    2.1278291262100873E-9    6.718303991184496E-9     1.0678254444717215E-8    9.783205792449322E-9     1.2959755119603242E-8    2.4085961589084855E-8    -4.694807191153541E-10   -2.960302810453564E-8