% Model:              Untitled.mph
% Version:            COMSOL 6.0.0.405
% Date:               Jul 17 2025, 05:01
% Dimension:          1
% Nodes:              401
% Expressions:        11
% Description:        Point graph
% Time (s)                Displacement field, Y component Displacement field, Y component Displacement field, Y component Displacement field, Y component Displacement field, Y component Displacement field, Y component Displacement field, Y component Displacement field, Y component Displacement field, Y component Displacement field, Y component Displacement field, Y component
0                         3.227908143819413E-30    1.6901020336484235E-30   -6.063534532416214E-31   -3.663269696703656E-33   -2.5961180693878234E-33  -3.685063173795939E-34   -5.429326342059766E-35   1.7484764091741264E-37   1.1401130521964471E-32   2.6655893334712864E-32   1.6286400587588808E-36
5.0E-7                    -4.702964254827906E-22   -1.4005520090268972E-22  4.050445655303563E-23    6.575813446942371E-25    -1.1871785210526699E-24  -3.514877597539401E-25   -6.312589640750216E-26   -5.651086752536042E-28   1.1101840744376685E-25   -1.945014722910138E-24   1.565668555537474E-28
1.0E-6                    -1.1764669797251995E-21  -8.187200994262789E-22   4.337375620004595E-22    1.2359261504551956E-24   1.3011642130932153E-23   2.7451707239987057E-24   4.875603474316778E-25    3.38734417899359E-27     -1.136569293613231E-23   -5.159245638516222E-23   -3.9100630546275756E-27
1.5E-6                    1.691346134675223E-20    7.78338485360198E-21     -3.4594159630618805E-21  -9.849573379809311E-25   -4.8089813621137996E-23  -6.084572043835313E-24   -9.49306396858405E-25    -2.9775809744242253E-27  5.727558265312303E-23    9.074877622351673E-23    1.9342472871890127E-26
2.0E-6                    -6.934776097468628E-20   -3.159974008335522E-20   1.3298974936588996E-20   -2.2496820932620144E-23  5.414150133376593E-23    -5.207208870229669E-24   -1.740842270664348E-24   -2.4842000660191784E-26  1.2232486119058066E-23   6.3277539101965E-23      -3.8237550774395985E-26
2.4999999999999998E-6     1.2882135725359263E-19   6.000241363855795E-20    -2.794104351888618E-20   -6.057724712888473E-23   1.6431450439963363E-22   3.2470773493636405E-23   5.906262990660836E-24    4.8150784537423644E-26   -3.0286067850044555E-22  1.5185631690384468E-21   -2.7246845693248964E-26
3.0E-6                    3.354859184185993E-20    -1.7075858706375298E-20  -3.5059053715430115E-21  3.3446359379859625E-22   -5.359288090889888E-22   1.0993819527630394E-23   1.002565594653236E-23    3.8485084003909927E-26   7.181165339000199E-22    -2.405107163160988E-21   2.2739221136318067E-25
3.5E-6                    -6.891210337554144E-19   -1.8784701886129624E-19  1.4915978117189194E-19   -1.7942578346205393E-22  -3.69571459556752E-22    -1.4672537492261795E-22  -3.1884261643081114E-23  -4.234346841353522E-26   3.975909536878547E-21    -9.604808635502569E-21   6.030854201538858E-26
4.0E-6                    1.0299572448034003E-18   7.176166026327289E-19    -2.049927446655115E-19   -1.6706912792038552E-21  3.527423366229144E-21    3.326707830425803E-23    -6.485164373282509E-23   3.7526361934355094E-26   5.523172341476507E-22    1.823786886517208E-20    -1.2120347730758367E-24
4.5E-6                    2.236409078916887E-18    -4.292274922089238E-19   -4.1288338368319017E-19  1.4983026001579808E-21   -9.77184755447383E-23    2.9349213317545224E-22   1.151583794719321E-22    -1.892628295300513E-24   -1.5725599458768275E-20  7.271389181993062E-20    -7.4336840661590395E-25
4.9999999999999996E-6     -4.680339593011342E-18   -3.841748868642649E-18   5.353455781651943E-19    1.1318249730961107E-21   -2.131782722009316E-20   -9.320980962480535E-22   3.9196864583625388E-22   -1.1657157533732123E-24  1.8539129271616964E-20   4.427546143348847E-21    6.4977431603226676E-24
5.5E-6                    -6.7603356058070326E-18  5.336657047150463E-18    3.3746645320918473E-19   -1.2520913963019808E-20  5.249928161396689E-21    1.7695549473355263E-21   -9.635308594674527E-23   2.1198853535149516E-23   1.620874312877793E-19    -2.8353710277907237E-19  6.387901824203706E-24
6.0E-6                    1.8284291194284457E-17   1.9437044972112988E-17   -1.383341020114743E-18   -1.3410419910124206E-20  1.1163734105431733E-19   9.29762884593725E-21     -2.1589284792932267E-21  1.8216172539562215E-23   1.1023844644623215E-19   -2.184043029344629E-19   -2.749903666151592E-23
6.5E-6                    4.039909967691989E-17    -1.4746536475357343E-17  -3.4249075506251143E-18  4.009163708024682E-21    -4.7325970792635446E-21  -1.9806642398538174E-20  -2.4494477724497636E-21  -1.4742628478236376E-22  -3.25468699249998E-19    1.0786436533486943E-18   -4.258015248755365E-23
7.0E-6                    4.560509470132718E-18    -5.858519721905077E-17   -1.5715196511000305E-17  -2.784261872701311E-20   -5.181291940968255E-19   -7.176524353854982E-20   8.761258897062642E-21    -1.9581049801339904E-22  5.377703835150926E-19    2.3325060091651646E-18   8.610785247907682E-23
7.499999999999999E-6      -2.4318949708745366E-17  7.876042560025007E-17    -3.507250935811442E-17   -3.0395592463893023E-19  -3.0542200617933686E-19  9.259560687814781E-20    2.357036270959506E-20    7.032344105788694E-22    4.783652737419534E-18    5.906658373353209E-19    2.1483079078644403E-22
8.0E-6                    9.423280436656533E-17    3.251753623316985E-16    -2.5617604458198014E-17  -8.303673923232166E-19   1.81418915750297E-18     4.420435828140603E-19    -1.6062246094464416E-20  1.3887259722451367E-21   7.873999172324312E-18    -2.6143148519405653E-18  -1.8429181267174339E-22
8.5E-6                    4.54928887171305E-16     2.0135645265519609E-16   -6.469340737114204E-17   -6.431840562140393E-19   2.7160842608939165E-18   -1.4647977467691767E-19  -1.281257765654269E-19   -2.3088724702866278E-21  5.075214355513006E-18    -1.8099835081272116E-19  -7.944024391629249E-22
9.0E-6                    1.4184559007894503E-15   2.6736120883738085E-17   -4.900817274444028E-16   1.3797787159912812E-19   -3.845994924165781E-18   -2.066045688188351E-18   -8.495373233204406E-20   -7.323551162685326E-21   2.852558999688902E-17    1.5436313670361927E-17   3.669898444122723E-22
9.499999999999999E-6      3.4246182789423426E-15   1.6041248617194646E-15   -1.5540961470053868E-15  -3.528801406068516E-18   -1.3374967302056934E-17  -1.2003377276596625E-18  4.066800788854294E-19    3.464508760677073E-21    1.4023640010538185E-16   5.126880569310201E-17    2.497065771248919E-21
9.999999999999999E-6      6.236327297659305E-15    5.992487885054338E-15    -2.913133848425014E-15   -1.7283883167971664E-17  -2.9579811475057176E-18  6.557491091820969E-18    8.381959646114248E-19    2.797509431686815E-20    3.19152067403028E-16     1.0075511393284028E-16   -1.798317316046466E-21
1.05E-5                   1.2165684430238109E-14   1.2647703097330561E-14   -4.518142002127731E-15   -3.6414981414421994E-17  3.6071523930316935E-17   1.071250443261367E-17    -3.331107759716804E-19   9.641341703681441E-21    5.416657812442003E-16    1.4482137448425098E-16   -9.667387194309596E-21
1.1E-5                    3.2554997191023824E-14   2.514566608835E-14       -9.53207822504291E-15    -4.617584622043823E-17   4.725027015071548E-17    -9.950739768823456E-18   -3.3527695507757492E-18  -7.884055235366214E-20   1.3077179759199138E-15   2.7394827803148015E-16   1.0192633033144214E-20
1.15E-5                   8.437330399355215E-14    5.672620372304156E-14    -2.6112779249271435E-14  -7.084110892790388E-17   -5.1456032195219357E-17  -4.462958768014692E-17   -3.8609375885403684E-18  -9.54489736315593E-20    3.790842452072349E-15    8.530400688064121E-16    5.48706779970188E-20
1.2E-5                    1.8121194438674674E-13   1.3030103616003552E-13   -6.235000082188348E-14   -2.8648620076148703E-16  -1.9717481017202532E-16  -2.490383000700834E-17   4.985927166328834E-18    1.259652407690958E-19    8.984156286972272E-15    2.388878002237472E-15    -1.0568655950824737E-20
1.2499999999999999E-5     3.597988769877556E-13    2.8959290495931187E-13   -1.1681813243448061E-13  -9.62484802847081E-16    -1.16002105141739E-16    9.592505302363075E-17    2.024064514791425E-17    3.460266983381919E-19    1.8163617127803315E-14   5.075539009793123E-15    -2.6034925553611365E-19
1.3E-5                    7.486251574609334E-13    6.262290284196346E-13    -1.8804100202824888E-13  -2.0058015718108177E-15  3.145832312367998E-16    1.978986178717771E-16    1.5981863489579636E-17   9.358401728282953E-23    3.727269606646439E-14    9.11499405617734E-15     -2.209994022896801E-19
1.35E-5                   1.5861924319466332E-12   1.2796144191640313E-12   -3.253445795333297E-13   -3.056385616693508E-15   5.266785315900585E-16    5.028086692772638E-18    -3.963588347008374E-17   -7.999215696508845E-19   8.11173455434599E-14     1.7813951339944304E-14   7.891104566766397E-19
1.4E-5                    3.145470617037044E-12    2.41538194474721E-12     -6.77133409045517E-13    -5.527773868717656E-15   -4.315442146870712E-16   -5.473317007340793E-16   -1.1363567191586548E-16  -8.113391886037655E-19   1.6993554926588088E-13   4.185915458187937E-14    1.7514244423592226E-18
1.45E-5                   5.7921406450628796E-12   4.358698997142844E-12    -1.4250868941291114E-12  -1.457407770212458E-14   -2.3232457637821222E-15  -8.131509732928796E-16   -5.679090767631452E-17   5.56473770139894E-19     3.254761203092706E-13    9.531117221897516E-14    -5.540074469206745E-19
1.4999999999999999E-5     1.0427768562005143E-11   8.007743153419926E-12    -2.6000360583207076E-12  -3.633537826742871E-14   -2.855443952306733E-15   2.881580391542528E-16    2.439756806674869E-16    1.27845652258351E-18     5.902823498949899E-13    1.8275018529635655E-13   -6.223088388471417E-18
1.55E-5                   1.8870000486047914E-11   1.5101868042315653E-11   -4.0467891911968025E-12  -7.29736154611606E-14    -4.747572867505828E-16   2.4820557401680143E-15   5.066906974320934E-16    -7.507519200814141E-19   1.0679059706611145E-12   3.104135341673882E-13    -5.900559385788113E-18
1.6E-5                    3.307031184646142E-11    2.749590356713733E-11    -5.837310391904871E-12   -1.2820101762023186E-13  5.597210292163509E-16    2.4866880743912594E-15   3.912856523109143E-17    -2.6377614072434593E-18  1.93249046328801E-12     5.433665578377896E-13    1.0898458099607323E-17
1.6499999999999998E-5     5.308560750761094E-11    4.5453287803697336E-11   -8.904549801441263E-12   -2.2783190648729455E-13  -9.469768173583974E-15   -3.2795846141306693E-15  -1.3056925785118303E-15  -9.920912115080677E-19   3.4006143295893556E-12   1.0329470275848755E-12   3.131969108257271E-17
1.7E-5                    7.593344724225637E-11    6.672194216735309E-11    -1.5077619593219035E-11  -4.3299395492009887E-13  -3.532502614173847E-14   -1.1178409165456657E-14  -1.9797449098051813E-15  -7.99259265821491E-18    5.768940613538692E-12    1.9255960067371235E-12   1.43399525151491E-17
1.75E-5                   9.738272083190634E-11    8.813072420686963E-11    -2.6021720280102457E-11  -8.181864568354722E-13   -6.777673120211903E-14   -8.500459795574087E-15   2.1946828841245116E-16   -4.6679330552052644E-17  9.499121881738238E-12    3.284794704560697E-12    -5.667970627621999E-17
1.8E-5                    1.1497061746931208E-10   1.0831164149041098E-10   -4.18281529693317E-11    -1.4402937154964069E-12  -9.732236420400797E-14   1.0445420276270698E-14   4.315094169150844E-15    -9.681400644170103E-17   1.5005258683286455E-11   5.263362633425352E-12    -1.0364979308614488E-16
1.85E-5                   1.2812394820444368E-10   1.2767893201099002E-10   -6.067961988743115E-11   -2.3860852089052565E-12  -1.504814969342115E-13   2.2363416165616736E-14   4.299178645332899E-15    -6.707379591524502E-17   2.2009933173793603E-11   8.340765557862972E-12    1.2143087892378422E-17
1.8999999999999998E-5     1.3517279041912474E-10   1.4480578167660097E-10   -7.997092791689266E-11   -3.907245590412039E-12   -3.0744962233501335E-13  -1.325565549050609E-14   -4.797073351184831E-15   5.210773216954534E-17    2.924076397315244E-11    1.3056098888626082E-11   2.9561967310697667E-16
1.95E-5                   1.3242629667843923E-10   1.5407999273421148E-10   -9.758082790012296E-11   -6.427798813852962E-12   -6.596252082643695E-13   -9.61531465225152E-14    -1.7104083202152156E-14  -6.678852615799639E-17   3.532537363832796E-11    1.9274144483143267E-11   4.520190874155513E-16
1.9999999999999998E-5     1.1803887839808413E-10   1.4916876925555189E-10   -1.1188031895637603E-10  -1.0202488881333343E-11  -1.2430399719725445E-12  -1.5184685694022556E-13  -1.788754246197463E-14   -9.447005153885014E-16   4.008223516629645E-11    2.5965021266304817E-11   1.0185698758934928E-16
2.05E-5                   9.529668699093693E-11    1.2898178850262612E-10   -1.2077347295050572E-10  -1.4900096414943356E-11  -2.061171299011448E-12   -1.1521199790922996E-13  -3.2143565254107428E-15  -2.5052104591751507E-15  4.427430635434708E-11    3.198252758439517E-11    -5.791198765267941E-16
2.1E-5                    6.901442820468419E-11    9.820121141516841E-11    -1.21328468115875E-10    -1.9772324230087503E-11  -3.244128608530954E-12   -8.217059749805862E-14   5.126729145181864E-15    -3.689176903802868E-15   4.777630279134826E-11    3.6746559325722483E-11   -4.88733949252595E-16
2.1499999999999997E-5     3.8056259883777106E-11   6.068703190952068E-11    -1.1068935045792793E-10  -2.4385720668355218E-11  -5.188608404542172E-12   -3.1237112977099077E-13  -2.278451119711768E-14   -4.032579078927893E-15   4.8705159515266393E-11   3.972345425452564E-11    1.5576259528089445E-15
2.2E-5                    -6.807721201763383E-12   1.3128183659551974E-11   -8.722957947768901E-11   -2.875957986721273E-11   -8.441676294098845E-12   -9.682261215620407E-13   -9.053374674424451E-14   -6.27610730648715E-15    4.4992924603014394E-11   3.9600851859757794E-11   5.077725807330254E-15
2.2499999999999998E-5     -7.686453033795843E-11   -5.406742449861084E-11   -5.0688244901894954E-11  -3.2249290519220995E-11  -1.3332351463084158E-11  -1.856669415214894E-12   -1.7768863520047346E-13  -1.608378421212475E-14   3.6241815719178377E-11   3.482190711010012E-11    7.553116648334838E-15
2.3E-5                    -1.7803548614570048E-10  -1.5009860554166492E-10  -1.4247836747614667E-12  -3.268489007664583E-11   -1.967099041512347E-11   -2.6106022537631745E-12  -2.883649612693458E-13   -3.764881002972051E-14   2.3147156797286947E-11   2.503308521091398E-11    7.463269863129667E-15
2.35E-5                   -3.088344307739289E-10   -2.779933891676776E-10   6.023684024809626E-11    -2.77347412362056E-11    -2.6757932529671455E-11  -3.295239120396439E-12   -4.71215752686295E-13    -7.140256072249469E-14   5.34414071679275E-12     1.1282782116107243E-11   8.766253202835639E-15
2.4E-5                    -4.6321289146084247E-10  -4.338922175717769E-10   1.3438691482274246E-10   -1.7403309152767137E-11  -3.352365801681049E-11   -4.7596381550820024E-12  -7.599690318989808E-13   -1.201593823349756E-13   -1.9238899256505122E-11  -5.5332793052037064E-12  2.1188596067252752E-14
2.45E-5                   -6.342161799713954E-10   -6.105336564623966E-10   2.2211350060229675E-10   -4.092067501139778E-12   -3.853169641208149E-11   -8.10665761152495E-12    -1.1323480408079892E-12  -1.9773396450151904E-13  -5.268636230693462E-11   -2.593117991172868E-11   5.3717767566492295E-14
2.4999999999999998E-5     -8.164548279272203E-10   -8.01511469764649E-10    3.258061383081852E-10    1.0580295617282624E-11   -4.005802206230009E-11   -1.361022002085116E-11   -1.629164254684132E-12   -3.273929302015979E-13   -9.52518050602528E-11    -5.122816965370886E-11   1.0764990310011153E-13
2.55E-5                   -1.007020725540242E-9    -1.0031733556326283E-9   4.4784860947406897E-10   2.8140218064772548E-11   -3.669004637093416E-11   -2.018775583331582E-11   -2.549697852160678E-12   -5.344773184136682E-13   -1.453694860312088E-10   -8.202726089322644E-11   1.7962023699922681E-13
2.6E-5                    -1.20403677801079E-9     -1.2132572087686153E-9   5.8799008884949E-10      5.13384450701145E-11     -2.8146208030603853E-11  -2.6052912301655726E-11  -4.401758803886691E-12   -8.57409395919495E-13    -2.0126723633191002E-10  -1.1759038765817513E-10  2.760632588193917E-13
2.65E-5                   -1.4032485639402307E-9   -1.4279831861788772E-9   7.419564377948224E-10    8.040979786898998E-11    -1.5201353926074225E-11  -2.987354320378937E-11   -7.460516502677527E-12   -1.3817201656249448E-12  -2.625072382181783E-10   -1.5648542166445408E-10  4.2720183743657714E-13
2.7E-5                    -1.5956966235640911E-9   -1.6400053116439938E-9   9.028592423366732E-10    1.1252277470877083E-10   1.703110298814358E-12    -3.1217147862371155E-11  -1.129540968759049E-11   -2.2491383963396775E-12  -3.2992132813606726E-10  -1.9765028156148987E-10  6.88869962501042E-13
2.7499999999999998E-5     -1.7688142921906655E-9   -1.8380456834326346E-9   1.063476986182931E-9     1.4475285486192897E-10   2.3750217429294302E-11   -2.996932423090894E-11   -1.4805749813643524E-11  -3.579617496753678E-12   -4.037395047889555E-10   -2.4089000568764595E-10  1.1352394028278815E-12
2.8E-5                    -1.909088237678305E-9    -2.007521183327394E-9    1.2167315093622221E-9    1.7629906018992388E-10   5.3063169569120536E-11   -2.5617881012661394E-11  -1.68128296180946E-11    -5.315584777115927E-12   -4.815754939635935E-10   -2.8622040830068734E-10  1.8509569089599415E-12
2.8499999999999998E-5     -2.0026798257890223E-9   -2.1313949056730813E-9   1.3548501188931102E-9    2.0768685630258143E-10   9.03039908741575E-11     -1.7313105253492477E-11  -1.665274093644096E-11   -7.096974781487339E-12   -5.583424735850023E-10   -3.3248491791738764E-10  2.9112561440255257E-12
2.9E-5                    -2.033841404917201E-9    -2.1909517008085416E-9   1.4694833410526196E-9    2.390889221168208E-10    1.331423767447951E-10    -4.534994134618166E-12   -1.4275802533378817E-11  -8.293956363724901E-12   -6.28018355033129E-10    -3.7680428284233354E-10  4.321004330769487E-12
2.95E-5                   -1.9843913564608435E-9   -2.166504192722755E-9    1.552377041566132E-9     2.697531045261785E-10    1.7750279063879752E-10   1.2524231718489105E-11   -9.964931130894073E-12   -8.228717542718967E-12   -6.851090586283251E-10   -4.1568230082761717E-10  5.916006679100254E-12
2.9999999999999997E-5     -1.8359439498608924E-9   -2.0382751788827252E-9   1.5938397738338483E-9    2.9771311452131856E-10   2.2034553141689614E-10   3.328856865373469E-11    -4.090303638826382E-12   -6.485524558609972E-12   -7.245843676479889E-10   -4.4619423584711554E-10  7.304058749877852E-12
3.05E-5                   -1.5726476843744009E-9   -1.7875543817420827E-9   1.5791285053330903E-9    3.191934859007173E-10    2.6100553006453296E-10   5.737924777102199E-11    2.9919517239071726E-12   -3.1376897657549795E-12  -7.412450700289931E-10   -4.6530440559749E-10     7.949878758342508E-12
3.1E-5                    -1.181564552790799E-9    -1.3977185070475252E-9   1.4873445919460625E-9    3.292562699100254E-10    2.9990707422225165E-10   8.481828745938159E-11    1.108482712975997E-11    1.253489644768838E-12    -7.295474810141655E-10   -4.682380027884808E-10   7.411451162643867E-12
3.15E-5                   -6.511484654579418E-10   -8.548640258911952E-10   1.2961674903424502E-9    3.2421012955503005E-10   3.363712621599218E-10    1.1575717515509298E-10   2.0316234731835308E-11   5.906789607549576E-12    -6.835997598667986E-10   -4.4864648169739797E-10  5.57492198965069E-12
3.2E-5                    2.893322435124864E-11    -1.4866359108105002E-10  9.891985607353229E-10    3.03121503441277E-10     3.677188220535015E-10    1.500278364932537E-10    3.103423413070574E-11    1.0240600237115729E-11   -5.971125056817307E-10   -4.009025134492259E-10   2.6811181038966676E-12
3.25E-5                   8.647375253004527E-10    7.259888219018422E-10    5.592488064311495E-10    2.6600279789740865E-10   3.899027963507176E-10    1.8674514481381807E-10   4.340678279808355E-11    1.4189299162968766E-11   -4.6394701723808157E-10  -3.2182176999932286E-10  -9.135815507799056E-13
3.2999999999999996E-5     1.8538693034182328E-9    1.7672475855685652E-9    5.342807194145405E-12    2.1039925195897554E-10   3.983868802101372E-10    2.2409810984802975E-10   5.716438076189214E-11    1.816469147702369E-11    -2.7931674232793867E-10  -2.100278304676664E-10   -5.056849959025431E-12
3.35E-5                   2.9838874372682525E-9    2.965573838613074E-9     -6.719214362739642E-10   1.3058164648567968E-10   3.8852008609212065E-10   2.5955289330895313E-10   7.180056472722501E-11    2.2652689118492148E-11   -4.050965613883653E-11   -6.433861073502823E-11   -9.911481251323292E-12
3.4E-5                    4.233632878353148E-9     4.303455386421229E-9     -1.470980717889872E-9    2.0906905907990713E-11   3.558210449701404E-10    2.905328505638739E-10    8.691504991218189E-11    2.77896723680038E-11     2.534843311415673E-10    1.1674184323262013E-10   -1.5728902167868608E-11
3.45E-5                   5.574083318498473E-9     5.753842570410669E-9     -2.385548060435919E-9    -1.198882437083416E-10   2.9654950172303145E-10   3.150797152671444E-10    1.0217005090772908E-10   3.336020426703488E-11    6.024956666944168E-10    3.342969033469428E-10    -2.2467770116024795E-11
3.5E-5                    6.966936024204112E-9     7.2772442632610185E-9    -3.4008907442270904E-9   -2.8810096183389463E-10  2.080911294656661E-10    3.3171743031078954E-10   1.1689804208383473E-10   3.9251383130433235E-11   1.004686281717074E-9     5.879998241020199E-10    -2.963193914684783E-11
3.5499999999999996E-5     8.363612234431188E-9     8.820326325691066E-9     -4.493475598665588E-9    -4.788629717517902E-10   8.861662934079395E-11    3.3837450655167797E-10   1.2995503801011515E-10   4.5802442050093826E-11   1.4551428630799182E-9    8.750228751358951E-10    -3.655850116163592E-11
3.6E-5                    9.707393675510433E-9     1.031851002297987E-8     -5.632755054499776E-9    -6.898453285680604E-10   -6.356441070011205E-11   3.3127256999174014E-10   1.401395875054643E-10    5.3424457533331914E-11   1.9445873396283924E-9    1.1887057543955877E-9    -4.29621076884564E-11
3.65E-5                   1.0936691914296933E-8    1.1700751077170077E-8    -6.781691770737397E-9    -9.203164926963031E-10   -2.4995075700907204E-10  3.049586270395593E-10    1.4672400022591972E-10   6.16305504474362E-11     2.4590603092701536E-9    1.5179172193838413E-9    -4.9201833596673145E-11
3.7E-5                    1.1985500470874044E-8    1.2891815414425187E-8    -7.894917757421005E-9    -1.1665137210240905E-9   -4.707903637293319E-10   2.537400675994038E-10    1.4939051338740825E-10   6.848779619752912E-11    2.980636284000396E-9     1.848354777658406E-9     -5.588702097488034E-11
3.75E-5                   1.2781079319929885E-8    1.3810611984521096E-8    -8.916856203475658E-9    -1.4185067838019264E-9   -7.238216576836736E-10   1.735810929404849E-10    1.4749487195268485E-10   7.136011064170245E-11    3.4884846117711575E-9    2.1651318561824394E-9    -6.30652989610328E-11
3.7999999999999995E-5     1.3243182436388812E-8    1.4368817170344347E-8    -9.782631937549003E-9    -1.661496956061592E-9    -1.0037841899970253E-9   6.316507311625324E-11    1.3938131130445507E-10   6.853381812120171E-11    3.959493061172254E-9     2.4541353785964855E-9    -6.975280966872909E-11
3.85E-5                   1.3288087809958897E-8    1.4474330956835662E-8    -1.042195726269604E-8    -1.8793923549952643E-9   -1.302798622805009E-9    -7.650605325314697E-11   1.225367134948254E-10    6.021563659563296E-11    4.368312043988871E-9     2.7007639109171935E-9    -7.433677728988466E-11
3.9E-5                    1.2836037022764735E-8    1.403847918433675E-8     -1.0763644014672929E-8   -2.057033839746185E-9    -1.6109382075752837E-9   -2.4357741439762036E-10  9.45862515348117E-11     4.78420289439873E-11     4.687174708961851E-9     2.8877907926460726E-9    -7.55032267666317E-11
3.95E-5                   1.1817859553213786E-8    1.2982086677896895E-8    -1.0738638036192343E-8   -2.180049673509454E-9    -1.9164050078719235E-9   -4.3674193294226474E-10  5.4272194287848426E-11   3.234269615504843E-11    4.885692178174414E-9     2.9951720074176358E-9    -7.273242517138064E-11
3.9999999999999996E-5     1.0178114731322276E-8    1.1238325966937767E-8    -1.0281818276247179E-8   -2.2337641460892034E-9   -2.2053240800657186E-9   -6.553551907340717E-10   1.509703428901083E-12    1.3114613006117435E-11   4.9309324947162875E-9    3.002197081434212E-9     -6.583084869429153E-11
4.0499999999999995E-5     7.875983575461224E-9     8.75500974857852E-9      -9.334343886838691E-9    -2.2028046423953445E-9   -2.4615069384766974E-9   -8.977949317344543E-10   -6.350383119184952E-11   -1.1316890369930864E-11  4.788841297059503E-9     2.8897635926652217E-9    -5.40577099457085E-11
4.1E-5                    4.887311022007157E-9     5.499401274068094E-9     -7.847415871224895E-9    -2.0720390534898633E-9   -2.6664015693982463E-9   -1.1589850627785033E-9   -1.41179310042237E-10    -4.180362546082133E-11   4.4278170082820735E-9    2.6410265785565E-9       -3.5917633721745297E-11
4.15E-5                   1.2095124972283205E-9    1.4651584697681489E-9    -5.786398771080024E-9    -1.8282484471789422E-9   -2.7992296913458325E-9   -1.4290054366003487E-9   -2.324326084591456E-10   -7.791043212753507E-11   3.8231668819488536E-9    2.2411447285723005E-9    -9.958540885382473E-12
4.2E-5                    -3.1324244466830463E-9   -3.3213273289421738E-9   -3.133942107027103E-9    -1.4612686553312523E-9   -2.8373713164359358E-9   -1.6941259874251265E-9   -3.3755242059646646E-10  -1.1865627266920336E-10  2.9596653021881485E-9    1.6780122792789672E-9    2.426402991633333E-11
4.2499999999999996E-5     -8.081870812844506E-9    -8.79710437541828E-9     1.075807997386434E-10    -9.64140110314672E-10    -2.7572831285258292E-9   -1.9395830581922005E-9   -4.5496294224083147E-10  -1.63573652901322E-10    1.831050653971002E-9     9.446696113956164E-10    6.611610532928072E-11
4.2999999999999995E-5     -1.3549274070166721E-8   -1.4861366566444543E-8   3.912733514259643E-9     -3.3335489626044456E-10  -2.5362074696227705E-9   -2.151788784336014E-9    -5.807896652718204E-10   -2.1270518235298736E-10  4.3846483553045737E-10   4.215721890259771E-11    1.1473314113127695E-10
4.35E-5                   -1.9411990087837163E-8   -2.137580470588449E-8    8.22830208819514E-9      4.2965544311809097E-10   -2.1544517280734895E-9   -2.3181484900578712E-9   -7.093295385659797E-10   -2.6550632558794815E-10  -1.2092572685418157E-9   -1.0191714796265125E-9   1.6974015396949534E-10
4.4E-5                    -2.5514003305980697E-8   -2.8165543830041055E-8   1.2969027884310216E-8    1.316381753751143E-9     -1.5975031385014234E-9   -2.4248766303334717E-9   -8.339333430639436E-10   -3.1995504394098413E-10  -3.0927896306862165E-9   -2.220656279635831E-9    2.309597525100131E-10
4.45E-5                   -3.1666848987214835E-8   -3.501986476621915E-8    1.8016244411419505E-8    2.3101186028119007E-9    -8.573351779487728E-10   -2.455010206304344E-9    -9.478871654232834E-10   -3.728911840073621E-10   -5.178981317008973E-9    -3.537131312746403E-9    2.973992452145313E-10
4.4999999999999996E-5     -3.7653746891222205E-8   -4.169334545607524E-8    2.3220040123754698E-8    3.3864726926265213E-9    6.700454315773531E-11    -2.3886093076697992E-9   -1.045075801086002E-9    -4.2110987156547767E-10  -7.4194115066853785E-9   -4.937031170846514E-9    3.665971182298133E-10
4.5499999999999995E-5     -4.323648983790601E-8    -4.7909962336169865E-8   2.840342653619821E-8     4.51443538307554E-9      1.16883369672056E-9      -2.205331962147743E-9    -1.120058584933803E-9    -4.618899333879548E-10   -9.751571891513098E-9    -6.3803000635636E-9      4.349539213482542E-10
4.6E-5                    -4.8162566060913845E-8   -5.33721923688976E-8     3.336674449204762E-8     5.656740075941489E-9     2.4328239092475946E-9    -1.887867297699168E-9    -1.1672109498190719E-9   -4.924724305727904E-10   -1.2101298585264444E-8   -7.816551357458305E-9    4.986069338801225E-10
4.65E-5                   -5.2171622578699346E-8   -5.7773664981782135E-8   3.789188120437753E-8     6.769448771987485E-9     3.83379487575453E-9      -1.4243412896228143E-9   -1.1793946415687766E-9   -5.093893404339403E-10   -1.438437875194562E-8    -9.186091254876583E-9    5.539620626106525E-10
4.7E-5                    -5.500339689080973E-8    -6.081156334280443E-8    4.1747011928361785E-8    7.801860659078653E-9     5.335943423963122E-9     -8.087909597368003E-10   -1.147531785562016E-9    -5.086757888963262E-10   -1.6506804341873328E-8   -1.0423466835737242E-8   5.975308518498336E-10
4.7499999999999996E-5     -5.640895264990399E-8    -6.219714014150054E-8    4.4692721921274554E-8    8.697791912336722E-9     6.892813520761287E-9     -4.032982098658019E-11   -1.062063660996258E-9    -4.867798824754768E-10   -1.8365536321971664E-8   -1.1460925197484883E-8   6.254817779707955E-10
4.8E-5                    -5.616366836510199E-8    -6.166648974679438E-8    4.649001536723782E-8     9.398219702823574E-9     8.447833005900308E-9     8.773602425188655E-10    -9.155318648035934E-10   -4.4109805839828024E-10  -1.9852042463485677E-8   -1.2230274942524092E-8   6.334802540233016E-10
4.85E-5                   -5.4078852850798574E-8   -5.899393007998973E-8    4.691035957881295E-8     9.844337582509056E-9     9.935203158248209E-9     1.9349124328058444E-9    -7.042681254146088E-10   -3.6964750943621167E-10  -2.0858446982316964E-8   -1.266425057791226E-8    6.169601744877378E-10