% Model:              Untitled.mph
% Version:            COMSOL 6.0.0.405
% Date:               Jul 17 2025, 03:05
% Dimension:          1
% Nodes:              401
% Expressions:        11
% Description:        Point graph
% Time (s)                Displacement field, Y component Displacement field, Y component Displacement field, Y component Displacement field, Y component Displacement field, Y component Displacement field, Y component Displacement field, Y component Displacement field, Y component Displacement field, Y component Displacement field, Y component Displacement field, Y component
0                         -3.888679661174083E-35   -3.8880999165485044E-34  -1.6854776142978975E-35  -3.230670230951631E-34   -6.740337294007758E-35   -1.4482618241135457E-35  -3.7125701540401076E-39  7.85398098218966E-34     3.895622053171509E-34    3.1344095784181555E-37   8.290206145755284E-39
5.0E-7                    1.0351027388804255E-26   7.903301747933419E-26    6.711536440295815E-28    4.081322203767863E-26    8.93377397910277E-27     1.7251718876358514E-27   4.7156946029566675E-31   -1.197499176506617E-25   -5.672668257071218E-26   -4.4125823692681813E-29  -1.077061496067461E-30
1.0E-6                    -3.4505707426311457E-28  -2.3765525377128636E-25  1.590468284675016E-26    2.0319902386529997E-26   -3.119128471542126E-27   6.205056200553138E-28    -1.4313691804115303E-31  1.3622405182833847E-25   8.151196653960669E-26    5.676458360514117E-29    5.698736232009925E-31
1.5E-6                    -2.1278835508895993E-25  4.287545266738183E-25    -6.402708669059352E-26   -4.266124794171143E-25   -4.2677504311184795E-26  -1.280723777924237E-26   -1.8675807273852988E-30  1.3064943292088784E-25   -9.396653425739437E-26   -4.315582861730275E-29   2.0985021423177416E-30
2.0E-6                    -1.4235507312235449E-25  2.3105515464198396E-24   1.4212928596204741E-25   6.295040162763755E-25    8.159314079142701E-26    1.0917731378515324E-26   1.873908020455062E-30    9.096219612184285E-25    1.0809978915669589E-25   1.0703052490162856E-28   5.903666702996116E-30
2.4999999999999998E-6     1.2936692122191575E-24   -1.0472602240135399E-23  4.253155438055298E-25    3.5883697187089635E-24   3.040250062704396E-25    8.913280275685911E-26    2.0087899329721244E-29   -2.026450962040278E-24   1.5839741081827528E-25   -2.0713134436225665E-28  -5.311503343968701E-29
3.0E-6                    -3.1427392298675677E-24  -1.2528849757224219E-23  -2.0317981664035495E-24  -1.0572529152978474E-23  -9.742351902427713E-25   -1.605072097963636E-25   -2.939801514586561E-29   -5.472530782552196E-24   -5.494395967303788E-25   -1.5550056285670332E-27  -5.502112121435689E-29
3.5E-6                    -8.146854726575193E-24   9.968253299378226E-23    -4.8598393545272605E-24  -2.1331724767517522E-23  -1.2460886060078583E-24  -7.926415846077213E-26   -1.8109977229136685E-28  5.117322871211145E-23    7.519852739362987E-26    5.050410688036894E-27    5.061050532815476E-28
4.0E-6                    3.436237515691051E-23    4.470924622625425E-23    1.5779457980674326E-24   8.728731449497557E-23    6.139130410385894E-24    1.0826392177404122E-24   2.315201013345377E-28    1.799782803100546E-23    7.250126201281664E-24    6.551894467964077E-27    2.5426151912573213E-28
4.5E-6                    -4.393329689679995E-23   -7.552806905971748E-22   3.529763531767085E-24    1.0065898296961752E-22   7.851103494108589E-25    -2.920525338371127E-24   1.3220404340510065E-27   -2.1877007419939174E-22  1.2790379806622056E-23   -4.9833322722438574E-26  -2.7172587242155437E-27
4.9999999999999996E-6     -5.048925411512618E-22   -6.93573008762533E-22    -3.8648667289352066E-23  -4.406647270766612E-22   -1.8360053067106454E-23  -1.4653872298371828E-24  -7.615012526192491E-28   1.3400826659743858E-21   -1.8569739899047544E-23  2.4695453026953236E-27   1.1888955343533424E-27
5.5E-6                    9.853053605803413E-23    2.414675437582306E-21    -2.3113551734636596E-22  -3.931074492760555E-22   1.3666986317170072E-23   2.8222516272816174E-23   -8.930501623532635E-27   3.401497577958699E-21    4.487930082227463E-23    3.4768297290109214E-25   1.1771370831072645E-26
6.0E-6                    1.740011978638187E-21    7.137292396249683E-22    -3.1421107271625874E-22  2.0725533535809498E-21   2.703354968777892E-23    -1.878739760094607E-24   -7.006452413921934E-28   -2.8711993104934313E-21  5.488254047160996E-22    -2.843482081251558E-25   -2.6331372930837464E-26
6.5E-6                    -7.791886310444908E-21   -1.507429451647166E-20   7.952591804577291E-22    1.2223008678870348E-21   -1.5993277197167561E-22  -1.4371450235044545E-22  4.7954154942045083E-26   1.2836835413294393E-20   8.706434917264068E-22    -1.8388576408236796E-24  -3.195188311932344E-26
7.0E-6                    -2.979850964101197E-20   -1.414560793803471E-20   8.05630907224742E-23     -1.13876993857181E-20    -6.774581939463714E-23   4.779895519798991E-23    2.816340567137766E-26    1.0754761314504185E-19   7.819761202995225E-22    2.2019867407157688E-24   2.6713489833728895E-25
7.499999999999999E-6      -1.6800550888007694E-20  2.8420752970572255E-20   -1.195677815403437E-20   -8.512414299440498E-21   8.198046683970595E-22    5.744709834322908E-22    -2.1885037477708088E-25  1.8295412862867809E-19   7.361338719517211E-21    9.53727724749642E-24     2.302189443169972E-25
8.0E-6                    -2.350077083271737E-20   -3.0813867273169427E-20  -2.3461801090987804E-20  5.1660693228323406E-20   -7.199465342320492E-22   -6.3498882117381E-22     -2.7879112641773903E-25  2.726848464722635E-19    2.449390503680891E-20    -6.31325410434562E-24    -1.1878063239623697E-24
8.5E-6                    -3.9475803120373366E-19  -3.125934729566866E-19   1.0304417710324047E-21   4.6718801457361673E-20   -8.017398574221108E-21   -2.9878430866191485E-21  7.488671807344459E-25    1.4706278620741433E-18   4.929140854147127E-20    -2.911667661468759E-23   -3.8983063375476096E-25
9.0E-6                    -1.2971712229681077E-18  -3.9113179044949603E-19  -1.7075169680763776E-20  -2.5908831804887126E-19  -4.2903134039352496E-21  3.233904921514112E-21    1.5848417612561036E-24   5.399950477988467E-18    1.7939449141273583E-19   6.146764018518811E-23    6.806591318434423E-24
9.499999999999999E-6      -2.5281554457365074E-18  -1.6418270905663548E-19  -3.044896519013622E-19   -4.961756288231545E-19   3.325902612031994E-20    1.585402313367918E-20    -2.5634317151105448E-24  1.3010194124255645E-17   6.799426185050401E-19    2.2925471379406766E-22   6.624478759530433E-24
9.999999999999999E-6      -6.248547072069018E-18   -2.0752056301864867E-18  -8.141178788451539E-19   2.295965887782102E-19    3.025147234616083E-20    -8.134115228225218E-21   -9.733262616667946E-24   3.108228304736954E-17    1.8543109435685477E-18   -2.8353878822746396E-23  -7.862603717188089E-24
1.05E-5                   -2.0569416811983117E-17  -9.472617691619065E-18   -1.2562206158678721E-18  6.8558733374542815E-19   -1.613022852062233E-19   -7.249420547164555E-20   1.5743913332755262E-24   8.889793173072694E-17    4.952206478990912E-18    -7.632873271922764E-22   3.7212466859642107E-23
1.1E-5                    -5.87469549530514E-17    -2.1987316153631538E-17  -2.7740125235759626E-18  -2.8837217758882907E-18  -3.50795104974451E-19    -2.373695348430287E-20   3.541183032544037E-23    2.5181969845809713E-16   1.5520751887703962E-17   2.7144988867451943E-22   2.0977026183352982E-22
1.15E-5                   -1.447756758056456E-16   -4.6217102614291296E-17  -9.175927203306391E-18   -8.774686828902382E-18   -8.74918228541248E-21    1.626108955315808E-19    -7.752097547899512E-24   6.417162721323185E-16    4.660191950654188E-17    6.083962845969907E-21    3.6226716909433824E-22
1.2E-5                    -3.5294868869279796E-16  -1.2534617173506436E-16  -2.525520842098122E-17   -8.456591575060558E-18   1.8623119427563562E-19   -8.305816666704892E-20   -2.3247864273331986E-22  1.5558693748883266E-15   1.235371127909517E-16    1.427454425089974E-20    5.693090573915382E-22
1.2499999999999999E-5     -8.89329475274192E-16    -3.436106447632308E-16   -5.804780882815049E-17   -1.392314022020678E-17   -2.3098518325250662E-18  -9.485942162103596E-19   -3.132772253551513E-22   3.8168895111376886E-15   3.1862424028205408E-16   2.095013630917E-20       2.130345073304377E-21
1.3E-5                    -2.2172283657920225E-15  -8.103964766577368E-16   -1.3219287340616453E-16  -7.386174993353733E-17   -7.15959095477807E-18    -2.8118658402501115E-19  3.2921903007203714E-22   9.370443265827372E-15    8.515827049855784E-16    5.0197380608278163E-20   7.110570877454108E-21
1.35E-5                   -5.33449835723225E-15    -1.799406631855565E-15   -3.2388995712527705E-16  -1.9878737150845078E-16  -7.109327153283914E-18   3.519434734403956E-18    4.4029401732276005E-22   2.217110108020177E-14    2.2477362306052543E-15   1.6565810459936536E-19   1.7837009061477837E-20
1.4E-5                    -1.2441768515132621E-14  -4.176520624929522E-15   -8.138067283107781E-16   -2.788814095715517E-16   -3.0005828518168495E-18  2.5425611445856704E-18   -4.024449453758678E-21   5.021278751001387E-14    5.629593301833511E-15    3.8366373599643733E-19   4.338275791049377E-20
1.45E-5                   -2.8253311221214883E-14  -9.887503613608227E-15   -1.9717033305446732E-15  -2.8934124481014717E-16  -3.2007658734876727E-17  -1.7308461093012397E-17  -1.2853700864806548E-20  1.105807452564368E-13    1.3616419218523895E-14   6.583679211621855E-19    1.0944458063015036E-19
1.4999999999999999E-5     -6.245036228390064E-14   -2.2404901252804272E-14  -4.542034997442564E-15   -7.958925576548652E-16   -1.4843816925082707E-16  -4.419198508593359E-17   -1.4574013126176297E-20  2.3862113226801684E-13   3.256374696472375E-14    1.4855558828065871E-18   2.579580485984896E-19
1.55E-5                   -1.347027795066774E-13   -4.8140123806045483E-14  -1.0141265244243978E-14  -3.0240425612743398E-15  -3.240507749961607E-16   -2.183477929786735E-17   -1.0799733279363635E-20  5.010931505731211E-13    7.647917955770532E-14    4.878830297526742E-18    5.692386836356523E-19
1.6E-5                    -2.843328916227237E-13   -1.004489150357961E-13   -2.2384540739396065E-14  -7.81960152297303E-15    -4.259398859549755E-16   7.143684951452612E-17    -6.577718750233272E-20   1.0167805736264878E-12   1.732045112053108E-13    1.3292812391494002E-17   1.289049794121254E-18
1.6499999999999998E-5     -5.856579584739096E-13   -2.0673747408500303E-13  -4.8898910476866196E-14  -1.4653797537982776E-14  -5.306463747916916E-16   8.596949085558701E-17    -2.7876729903962254E-19  1.9934041571381078E-12   3.7588392381097927E-13   2.5624599108065936E-17   3.0438624892068508E-18
1.7E-5                    -1.1690259409931035E-12  -4.180309201372159E-13   -1.0483181746295775E-13  -2.3472406549152164E-14  -1.3997142521394172E-15  -2.402966812976574E-16   -6.444035069026895E-19   3.783688731712775E-12    7.837578725394588E-13    3.938068282646959E-17    7.031519496478662E-18
1.75E-5                   -2.2494106402951497E-12  -8.204407853803962E-13   -2.1970233403386489E-13  -4.022798049794394E-14   -4.296249688167011E-15   -8.879297990116722E-16   -1.1090777677927506E-18  6.948502821341086E-12    1.5699216324413345E-12   7.17997022350769E-17     1.5416360007042767E-17
1.8E-5                    -4.164997428964454E-12   -1.5478761474820891E-12  -4.491131340311775E-13   -8.213092588864912E-14   -9.85275414405203E-15    -1.289657298102708E-15   -2.1860008627992318E-18  1.230340456391203E-11    3.003756269532214E-12    1.838215841985517E-16    3.270328318473952E-17
1.85E-5                   -7.418147370891639E-12   -2.7980920419391603E-12  -8.883266961788396E-13   -1.7667119424029417E-13  -1.7743917865566708E-14  -9.572905370207066E-16   -5.6612389250789214E-18  2.0878579620255815E-11   5.452182223940468E-12    4.553010381147191E-16    6.870051436261034E-17
1.8999999999999998E-5     -1.2689675354104627E-11  -4.859677744432877E-12   -1.683505587082942E-12   -3.522240894267743E-13   -2.975112698969625E-14   -8.041041123985155E-16   -1.4333312425199545E-17  3.36006465742096E-11     9.337893385099484E-12    9.142161015582478E-16    1.4339103831328094E-16
1.95E-5                   -2.0770434751944702E-11  -8.134884136290138E-12   -3.0488856213978403E-12  -6.265102084753117E-13   -5.565736423959758E-14   -3.4890970146166104E-15  -3.1562497375789187E-17  5.0491619650628717E-11   1.5007140450492292E-11   1.5691406299500116E-15   2.9626458258440133E-16
1.9999999999999998E-5     -3.232186313546121E-11   -1.3065008954136755E-11  -5.299892809068738E-12   -1.0146642643558315E-12  -1.1682921471036937E-13  -1.1535186712627835E-14  -6.445771278859797E-17   6.963837538192254E-11    2.2453967620824356E-11   2.6956746476994964E-15   6.074001405621627E-16
2.05E-5                   -4.7367919218245234E-11  -1.9829615457714707E-11  -8.84916676737539E-12    -1.5924271212747223E-12  -2.4276897486072225E-13  -2.503415270692586E-14   -1.3322217248539994E-16  8.695477793795114E-11    3.096116329492716E-11    5.221526515249937E-15    1.2390600007341736E-15
2.1E-5                    -6.455046547264198E-11   -2.78902370610402E-11    -1.4022607866734588E-11  -2.616066765430153E-12   -4.640137735385712E-13   -4.309253446232759E-14   -2.831146282831291E-16   9.771244893069107E-11    3.8948888240384085E-11   1.0864632803783755E-14   2.5053083851558158E-15
2.1499999999999997E-5     -8.055696132558263E-11   -3.581022957679058E-11   -2.064079599944173E-11   -4.58836624982668E-12    -8.157304850947582E-13   -7.047954741947203E-14   -5.977931118538982E-16   9.91568160416984E-11     4.44117909291804E-11     2.2203677086390357E-14   4.999297565764733E-15
2.2E-5                    -9.053573491770479E-11   -4.1781348935584467E-11  -2.7679552904602374E-11  -8.07766347515896E-12    -1.3687399727729376E-12  -1.242480300172138E-13   -1.2327327153540549E-15  9.174226571104905E-11    4.594337348840636E-11    4.359722455627494E-14    9.879400850220168E-15
2.2499999999999998E-5     -9.006834647639436E-11   -4.459470372056316E-11   -3.3566415776891326E-11  -1.3252060084908587E-11  -2.282568543326772E-12   -2.327389450440502E-13   -2.4979678306216917E-15  7.738205097665587E-11    4.3615007367028446E-11   8.337064404007932E-14    1.946682489700015E-14
2.3E-5                    -7.788978548518621E-11   -4.4086620434236864E-11  -3.716428513074887E-11   -1.9469202469553262E-11  -3.826887023408834E-12   -4.291444472143142E-13   -4.984067165305654E-15   5.6476993239713876E-11   3.87045150566594E-11     1.5611437189492209E-13   3.816441290672906E-14
2.35E-5                   -5.694530648134723E-11   -4.04707653324832E-11    -3.848813325262844E-11   -2.5433857411166838E-11  -6.2893430335652505E-12  -7.566180617701782E-13   -9.709087460042173E-15   2.7154458001376396E-11   3.2180202481081374E-11   2.8395063964189683E-13   7.338683571890197E-14
2.4E-5                    -3.17837357600412E-11    -3.3280764345916795E-11  -3.808242737456195E-11   -2.9989726861607096E-11  -9.755404544616778E-12   -1.2967284136519711E-12  -1.8430031674586383E-14  -1.2628890819109646E-11  2.3317057449659963E-11   4.980392471621908E-13    1.362002990426833E-13
2.45E-5                   -3.675505326437179E-12   -2.1263243765793827E-11  -3.5488225848137144E-11  -3.285602353203985E-11   -1.3906153390611501E-11  -2.1935426707261923E-12  -3.452543626170045E-14   -6.318240937286837E-11   1.0013261358408928E-11   8.413856704600547E-13    2.4209661691329444E-13
2.4999999999999998E-5     3.175659628136661E-11    -3.483873257431906E-12   -2.8707798274258258E-11  -3.44778457060897E-11    -1.8069440986453417E-11  -3.6091766560620996E-12  -6.462223763691062E-14   -1.2386734881259455E-10  -9.46911294035282E-12    1.3665862287446282E-12   4.1273474919065054E-13
2.55E-5                   8.098881916387749E-11    1.966765942646354E-11    -1.5703210481338246E-11  -3.504030503619968E-11   -2.1588566445054262E-11  -5.5849690842594025E-12  -1.2009581471404887E-13  -1.9516849944024302E-10  -3.5447069338942056E-11  2.1152844945319274E-12   6.775476191067013E-13
2.6E-5                    1.4601358072295577E-10   4.696544779809783E-11    3.640626886783813E-12    -3.3703276028355475E-11  -2.421272689579268E-11   -7.901338355534622E-12   -2.17055462805242E-13    -2.790850801460297E-10   -6.770888916061365E-11   3.0767876282717826E-12   1.0705012100474679E-12
2.65E-5                   2.2189421904913128E-10   7.801047362510631E-11    2.7558306842094515E-11   -2.8948179823967103E-11  -2.606244998681566E-11   -1.0103752586776777E-11  -3.754535631464351E-13   -3.7735521964660247E-10  -1.0688191372028195E-10  4.15213120980926E-12     1.6176460469792713E-12
2.7E-5                    3.0166241770681675E-10   1.141468396972404E-10    5.45980284791805E-11     -1.9626375709495765E-11  -2.7092189795177845E-11  -1.1750143738394689E-11  -6.20918578669781E-13    -4.894733580845605E-10   -1.5402796629240518E-10  5.16486630510301E-12     2.319862858029825E-12
2.7499999999999998E-5     3.832073119974619E-10    1.5725146899321393E-10   8.54610998838459E-11     -5.431972614403165E-12   -2.657888847910565E-11   -1.2690059726621397E-11  -9.904226934021405E-13   -6.119458892648958E-10   -2.088190757009505E-10   5.927159366715151E-12    3.1450792478115E-12
2.8E-5                    4.701441541433632E-10    2.074368111454371E-10    1.2236911257531548E-10   1.3746320382248987E-11   -2.328049145162277E-11   -1.3076638533552155E-11  -1.5328690159324731E-12  -7.385553123959362E-10   -2.68895503219581E-10    6.3093764065504754E-12   4.038840793632691E-12
2.8499999999999998E-5     5.656652037267303E-10    2.6219908417411293E-10   1.6658776654051415E-10   3.868061167195174E-11    -1.6235304876235768E-11  -1.30339706600653E-11    -2.2905536364241065E-12  -8.610002270308961E-10   -3.3136180494259667E-10  6.245345894388605E-12    4.938714242369813E-12
2.9E-5                    6.665037927490446E-10    3.1796124766203117E-10   2.1653537401045514E-10   7.063160193878608E-11    -5.400187913827282E-12   -1.2283729256851674E-11  -3.2636117738426878E-12  -9.698850665676771E-10   -3.942236212494002E-10   5.670811295629954E-12    5.763490201362776E-12
2.95E-5                   7.634309551575563E-10    3.7207084447042266E-10   2.6819339553373137E-10   1.1015048069347393E-10   8.591168888735717E-12    -1.0150407697317159E-11  -4.387993659529834E-12   -1.0562452104349792E-9   -4.5577600185953466E-10  4.471909805114815E-12    6.37346307446782E-12
2.9999999999999997E-5     8.466089448758126E-10    4.2291524322984904E-10   3.1742429087667094E-10   1.5610375075626214E-10   2.5346007062545534E-11   -6.009102322648267E-12   -5.5592269661301764E-12  -1.113077152752431E-9    -5.130922479761354E-10   2.511774782974819E-12    6.54758536590387E-12
3.05E-5                   9.089562365006613E-10    4.683520071273236E-10    3.6207184868431164E-10   2.0595817250934495E-10   4.538580735675678E-11    2.574551188336823E-13    -6.6885212029108746E-12  -1.1354209243758495E-9   -5.618269931210529E-10   -2.901449022193148E-13   6.031971725976549E-12
3.1E-5                    9.441815720925E-10       5.045436028362321E-10    4.017375075614705E-10    2.5705412260971617E-10   6.992131040790024E-11    8.29036900745208E-12     -7.728856122138141E-12   -1.1181038057500146E-9   -5.972140055949444E-10   -3.913292547863703E-12   4.645644305101225E-12
3.15E-5                   9.432021460517223E-10    5.263410562335202E-10    4.352858305964473E-10    3.076732801355077E-10    9.995162392146439E-11    1.7753612564433183E-11   -8.626062868942861E-12   -1.0528217984520002E-9   -6.14557304552596E-10    -8.270744742211241E-12   2.3478930508812565E-12
3.2E-5                    8.9454499942718E-10      5.285119427691136E-10    4.5869053994879046E-10   3.5695555027112536E-10   1.354765591819177E-10    2.8732767370876695E-11   -9.229998147604046E-12   -9.278942547998897E-10   -6.089236583936135E-10   -1.3288505942995293E-11  -8.122711707331192E-13
3.25E-5                   7.890856481451308E-10    5.066916439186623E-10    4.657916620277302E-10    4.036988639968871E-10    1.7542926052568793E-10   4.157024704392276E-11    -9.251715101739606E-12   -7.316080596269073E-10   -5.751671071153332E-10   -1.89700116864196E-11    -4.821345799007073E-12
3.2999999999999996E-5     6.236668970464409E-10    4.576209268869462E-10    4.513728370867187E-10    4.449623482084664E-10    2.1824550932564664E-10   5.636122347247259E-11    -8.3106820966022E-12     -4.5591997559944875E-10  -5.085415344733368E-10   -2.540730627791331E-11   -9.76546188558166E-12
3.35E-5                   3.9902318484756933E-10   3.788141087067412E-10    4.1316875710206127E-10   4.756399451580877E-10    2.6236716906308623E-10   7.276158402565342E-11    -6.037871447097903E-12   -9.712753676591228E-11   -4.050223938173374E-10   -3.2713975431178056E-11  -1.5759591491616776E-11
3.4E-5                    1.143063058219099E-10    2.6806860452564984E-10   3.5051191432599696E-10   4.89537005094412E-10     3.0603224126495275E-10   9.034395024657254E-11    -2.178559500951362E-12   3.45690035677339E-10     -2.610481587489428E-10   -4.088559423867039E-11   -2.2822071406269078E-11
3.45E-5                   -2.349955600395483E-10   1.2319585221610255E-10   2.612616336063374E-10    4.812468689112725E-10    3.465371482453537E-10    1.0897937612677418E-10   3.3359719061419415E-12   8.711621740267224E-10    -7.336661747571014E-11   -4.9674085998219566E-11  -3.083283750778569E-11
3.5E-5                    -6.528509357425885E-10   -5.797875095440897E-11   1.4076651801533817E-10   4.473237773227698E-10    3.7994128255665335E-10   1.2861996359902608E-10   1.0381414488905146E-11   1.474156738542432E-9     1.6051105692583466E-10   -5.859941677325491E-11   -3.9603051282279314E-11
3.5499999999999996E-5     -1.137049111220257E-9    -2.7738585837171133E-10  -1.570994369711377E-11   3.8585410430223205E-10   4.0187148462933347E-10   1.4859899549820135E-10   1.8747620656770142E-11   2.144536757788211E-9     4.413953496559164E-10    -6.70992792854692E-11    -4.8944542123320854E-11
3.6E-5                    -1.6785431732242732E-9   -5.359768055229799E-10   -2.096591000912379E-10   2.9507998133632625E-10   4.088427805704E-10       1.6723875065023786E-10   2.8339437484419052E-11   2.8675288493364717E-9    7.674288789756906E-10    -7.46383705875219E-11    -5.863170077022312E-11
3.65E-5                   -2.2652654220217186E-9   -8.323584084488201E-10   -4.3847457892381416E-10  1.725522063521518E-10    3.9878139200164337E-10   1.8229558101811451E-10   3.931235886024314E-11    3.624269390240652E-9     1.1334718085659705E-9    -8.062549827689399E-11   -6.828340786507956E-11
3.7E-5                    -2.8838681164466213E-9   -1.1614758186413867E-9   -6.972821359591763E-10   1.5533716454332968E-11   3.701526972730224E-10    1.9184143953279736E-10   5.1966846027478796E-11   4.39082826688217E-9      1.5312129354202558E-9    -8.424837681357053E-11   -7.72890800885913E-11
3.75E-5                   -3.5161555813975867E-9   -1.514249090963997E-9    -9.80670264404192E-10    -1.7788762021396103E-10  3.204868019327619E-10    1.9465993105365292E-10   6.642948793797458E-11    5.136516972114053E-9     1.9497568036981387E-9    -8.449312061208098E-11   -8.485072494123878E-11
3.7999999999999995E-5     -4.135025024115134E-9    -1.878201399471298E-9    -1.2823529870846124E-9   -4.078379042656461E-10   2.4569335913904595E-10   1.8974922974083183E-10   8.237741792230834E-11    5.823715582982892E-9     2.3758670943130538E-9    -8.040272844891889E-11   -9.008449577546929E-11
3.85E-5                   -4.705994413645831E-9    -2.238350329450466E-9    -1.5937854610502127E-9   -6.721430931047166E-10   1.408902956965478E-10    1.75521609754875E-10     9.903106730853787E-11    6.409809554735388E-9     2.7934228603434284E-9    -7.129543120190152E-11   -9.207609200824685E-11
3.9E-5                    -5.1930724861595095E-9   -2.577886229177387E-9    -1.9037919250399283E-9   -9.661595789783946E-10   2.2683240659320916E-12   1.4964644610246857E-10   1.1536450892961249E-10   6.849562434890849E-9     3.1827307940349848E-9    -5.668797001933705E-11   -8.986577564987935E-11
3.95E-5                   -5.562285077790794E-9    -2.8787439255944165E-9   -2.1994594616898984E-9   -1.2829048703080714E-9   -1.7125827663993212E-10  1.0978299474556395E-10   1.3027911172633507E-10   7.0964665080084915E-9    3.520828383911246E-9     -3.606150711721104E-11   -8.244159324554494E-11
3.9999999999999996E-5     -5.779848398636741E-9    -3.122126959056876E-9    -2.4667593755905198E-9   -1.613369059179319E-9    -3.777002790577619E-10   5.449691417333311E-11    1.425748761028959E-10    7.103741128949424E-9     3.783030097530408E-9     -8.837894170240668E-12   -6.881297668637289E-11
4.0499999999999995E-5     -5.8089567094632005E-9   -3.2886240022432706E-9   -2.6898416332699503E-9   -1.9465977885750298E-9   -6.130240672744716E-10   -1.6448525903383056E-11  1.508046693093671E-10    6.826589858963287E-9     3.944615837218096E-9     2.5333183982034087E-11   -4.8136927371229564E-11
4.1E-5                    -5.610313854632797E-9    -3.3577881261972935E-9   -2.8498812050780503E-9   -2.2692959068118236E-9   -8.725004819587886E-10   -1.0243597360783609E-10  1.5322704735096015E-10   6.225942655722833E-9     3.981503244744961E-9     6.628575144029176E-11    -1.9813523716454638E-11
4.15E-5                   -5.146948707996243E-9    -3.3080456922823816E-9   -2.9254081403700398E-9   -2.5654004127494473E-9   -1.1510069334904382E-9   -2.0233117004464457E-10  1.479751783601553E-10    5.272170393847081E-9     3.8702115699642974E-9    1.1336247930959672E-10   1.6476166181998464E-11
4.2E-5                    -4.389985208843036E-9    -3.118113099480656E-9    -2.8948699136330477E-9   -2.816374717605202E-9    -1.4418916509842132E-9   -3.1445426673020765E-10  1.3335664705232491E-10   3.947179047869574E-9     3.5884393802419505E-9    1.6568030642836468E-10   6.074255910974585E-11
4.2499999999999996E-5     -3.3220463106576057E-9   -2.769687996863984E-9    -2.7397276875447624E-9   -3.002309055686485E-9    -1.7354728878976728E-9   -4.365335850959704E-10   1.0807698232469443E-10   2.2447860601651403E-9    3.1167586083515896E-9    2.222910007508772E-10    1.1263933327285709E-10
4.2999999999999995E-5     -1.93734898521811E-9     -2.249655592829392E-9    -2.445559723912499E-9    -3.1030850187517113E-9   -2.0187402311382568E-9   -5.660433284875331E-10   7.123804195605326E-11    1.7090890648443161E-10   2.440568673358999E-9     2.820340008715759E-10    1.7142946480013245E-10
4.35E-5                   -2.40299094726725E-10    -1.5507669091339E-9      -2.0010499282956834E-9   -3.0989732365455937E-9   -2.2767214995492768E-9   -7.005853383976763E-10   2.2162517719761652E-11   -2.254728546346808E-9    1.551378874570029E-9     3.4322030287188725E-10   2.359973517923552E-10
4.4E-5                    1.7542671187544626E-9    -6.717934167984076E-10   -1.3976646319957726E-9   -2.9708885677732806E-9   -2.494338231733808E-9    -8.375104191761167E-10   -3.972990965850163E-11   -4.99543607677073E-9     4.4747660701785206E-10   4.034496259156425E-10    3.0485908860336173E-10
4.45E-5                   4.017828102477666E-9     3.816199474651351E-10    -6.320292338723592E-10   -2.7009801495949515E-9   -2.6571262780045487E-9   -9.726442355424696E-10   -1.1480061612181175E-10  -7.994906920417124E-9    -8.652095252150449E-10   4.597275821211876E-10    3.7609116691069805E-10
4.4999999999999996E-5     6.504148444576361E-9     1.5959718931753133E-9    2.908209255074532E-10    -2.2738160913418247E-9   -2.7503978177134674E-9   -1.0991408914058594E-9   -2.0286079402456002E-10  -1.117663375468268E-8    -2.3713832077461237E-9   5.087798077238918E-10    4.4719002267320493E-10
4.5499999999999995E-5     9.14791167890941E-9      2.9499587421504357E-9    1.356615456723212E-9     -1.6778247605649503E-9   -2.7579333244143053E-9   -1.2076625263675663E-9   -3.0286407477436925E-10  -1.4444916505333609E-8   -4.044168200802975E-9    5.473078901240975E-10    5.149936254931609E-10
4.6E-5                    1.1866740894874615E-8    4.415055618690023E-9     2.543674334680689E-9     -9.066198873448085E-10   -2.661634801936127E-9    -1.287906444502243E-9    -4.1280687551173744E-10  -1.7686433641262425E-8   -5.84394581845037E-9     5.720322090311875E-10    5.757807937306144E-10
4.65E-5                   1.4564419955860394E-8    5.955038446502689E-9     3.8244576874040265E-9    3.973605992604176E-11    -2.442731900775955E-9    -1.3303024008097806E-9   -5.297958989299642E-10   -2.0772712537438733E-8   -7.719427877373495E-9    5.796130626835385E-10    6.255028864893556E-10
4.7E-5                    1.7133445219454714E-8    7.524339251254173E-9     5.164979801735725E-9     1.1532183271221436E-9    -2.0841434996990912E-9   -1.3268213932629134E-9   -6.50109733528294E-10    -2.35642709587791E-8     -9.610138346960177E-9    5.666687789740401E-10    6.599755214921421E-10
4.7499999999999996E-5     1.9457205392903117E-8    9.067121287727717E-9     6.523501685535246E-9     2.416078618470638E-9     -1.573109420666425E-9    -1.2709087391573349E-9   -7.691675048339347E-10   -2.591581301297895E-8    -1.1448307662966358E-8   5.299808488605703E-10    6.749249464608927E-10
4.8E-5                    2.1412994730588753E-8    1.0518780425603908E-8    7.850824549133904E-9     3.799514136825852E-9     -9.031942820549165E-10   -1.1571583614816896E-9   -8.814733789952008E-10   -2.7681238740059973E-8   -1.3159540948277547E-8   4.667518842362258E-10    6.659737217087313E-10
4.85E-5                   2.2876372484166864E-8    1.1809576518632708E-8    9.092430216954605E-9     5.263767167571579E-9     -7.517045387708543E-11   -9.810094558842557E-10   -9.806397855185029E-10   -2.871858713493874E-8    -1.466352381311772E-8    3.747323056363077E-10    6.287380710297013E-10