% Model:              Untitled.mph
% Version:            COMSOL 6.0.0.405
% Date:               Jul 17 2025, 07:02
% Dimension:          1
% Nodes:              401
% Expressions:        11
% Description:        Point graph
% Time (s)                Displacement field, Y component Displacement field, Y component Displacement field, Y component Displacement field, Y component Displacement field, Y component Displacement field, Y component Displacement field, Y component Displacement field, Y component Displacement field, Y component Displacement field, Y component Displacement field, Y component
0                         3.120410450515533E-31    3.528411844019451E-31    2.3864363019438367E-31   7.075251260323565E-32    -1.918190001781666E-33   -1.6897215938467082E-33  -3.281025925972159E-34   -9.568185849094169E-35   -4.0524521839871795E-31  1.0595051627035189E-33   6.6364989558593936E-37
5.0E-7                    -2.6461456102350447E-23  -3.522322932942726E-23   -2.0015116467122742E-22  -4.052207618192315E-23   -5.064869960621897E-24   3.3865570813566883E-25   1.180589414748374E-25    6.237102953710616E-27    3.3420887824894285E-23   3.2182079309781772E-25   -4.7589229466456866E-29
1.0E-6                    1.1404909901202243E-22   3.6175821227968484E-22   8.066976971632477E-22    2.1592554955030042E-22   3.866910880819096E-23    -1.1586098121370348E-24  -6.509823634376658E-25   8.6252413745184E-26      -1.012852767366085E-23   -4.557099199793068E-24   -3.8233099245174965E-28
1.5E-6                    -1.6892213694368742E-21  -2.004062101111126E-21   4.608122175890848E-22    -2.120458446988347E-22   -1.0635813487546E-22     5.364819543216982E-24    -1.1624973721138558E-25  -6.3864508072790815E-25  3.2600657215950156E-22   1.7374697243780943E-23   1.2259523451430411E-27
2.0E-6                    2.9014469105164173E-21   1.1470183641944558E-21   -5.739056083079658E-21   -1.4731758778912756E-21  -7.265947800708032E-23   -2.814407890063342E-23   1.1636715431711625E-23   2.07182484021063E-24     2.0637044395257261E-22   -2.7375791041330144E-23  -3.952109109423957E-28
2.4999999999999998E-6     3.1546765740658295E-20   2.271909038918097E-20    3.5447913734746175E-21   3.696041012987624E-21    5.821478862832226E-22    5.52987850557143E-23     -2.0991714488128282E-23  -1.6438600317609648E-24  -1.2248844032044454E-20  3.0584456732355827E-23   1.674366494730245E-26
3.0E-6                    -1.1965654390919775E-19  -9.142465307895157E-20   -3.298586859347882E-20   -1.3979090991981037E-21  1.8059340718621847E-21   2.9400781768407945E-22   -6.745050556102562E-23   -9.332533931589804E-24   3.638936271287008E-20    -4.44050765525432E-23    -9.793076350169615E-26
3.5E-6                    -4.391236558084167E-20   1.4344846018882313E-19   1.6942569470983121E-19   1.0033808706690164E-20   -3.2165260569784844E-21  -1.5734387135064105E-21  1.5417600752490567E-22   1.495601574637481E-23    2.0595027500482188E-20   -2.9958118723347855E-22  -2.9419430320683097E-26
4.0E-6                    6.804965610533673E-19    3.2192904397878814E-19   2.0682248792693656E-19   -2.6168078930773178E-20  -2.755491749997349E-20   6.788001785695741E-22    2.0864231280852864E-22   6.099280365985125E-23    -2.5153103688151477E-19  8.68116346291902E-22     7.639597846979917E-25
4.5E-6                    -2.0851310045448112E-19  -1.758766996512313E-18   -1.5092630918057493E-18  -1.099874033567179E-19   2.6861290252218796E-20   9.540565376767924E-21    9.709310503035388E-23    -1.0509902664804908E-22  9.303468804488652E-20    1.917051567708088E-21    7.140877598859753E-25
4.9999999999999996E-6     -2.085990210838861E-18   2.798217470613517E-19    -2.4253428431093403E-19  3.694892653844966E-19    2.273051381949406E-19    -1.330505859574025E-20   -1.6659221395150993E-21  -3.9071409403590526E-22  1.1075793365431465E-18   -2.82318747588901E-21    -4.411210514581882E-24
5.5E-6                    8.025918091096448E-19    9.838314055328088E-18    8.071180082710764E-18    3.933747169124349E-19    -1.5145618261224945E-19  -3.635414001817898E-20   -6.414613333118872E-21   5.406658872943048E-22    -1.0240522814999623E-18  -1.7816672556850754E-20  -1.1081867236457487E-23
6.0E-6                    5.144435131280469E-18    -3.715120918422498E-18   2.1913091286723756E-18   -1.8820169969060674E-18  -1.179115112198335E-18   6.846401478446711E-20    1.3702249596932543E-20   2.1295611203484337E-21   -3.83854166853835E-18    -3.131962438067669E-21   1.7021882200838803E-23
6.5E-6                    6.00963103624386E-19     -4.210776618952928E-17   -2.879442963779981E-17   -1.1761065671666319E-18  6.050556338732943E-19    1.1301236418207278E-19   4.568600006164122E-20    -1.4242386487935226E-21  4.002564578776406E-18    1.223257325409388E-19    9.447172025168333E-23
7.0E-6                    -8.444721456337004E-18   3.658596907266302E-18    -1.576253552401704E-17   7.246028354722617E-18    4.736255025094874E-18    -2.263966518574857E-19   -9.199348299487414E-20   -1.0464923911359591E-20  5.503488434098274E-18    1.1916291014026954E-19   6.870419984979677E-24
7.499999999999999E-6      1.984980046592346E-18    1.6637405111813403E-16   1.0386303788987757E-16   8.37067990361174E-18     -1.9692317353032554E-19  -3.486245843357389E-19   -2.1603069038709955E-19  -1.794788507177259E-21   -1.7214425176440964E-17  -5.857588504911515E-19   -5.3584727008520045E-22
8.0E-6                    4.394634322199003E-17    1.3039165352550252E-16   1.7566345681495383E-16   -1.4295310181928664E-17  -1.1443816336800056E-17  4.533390472571741E-19    5.3543520732022415E-19   4.455910392516898E-20    -1.2789585049427771E-17  -1.0172127874833884E-18  -5.987629202726333E-22
8.5E-6                    5.0069830501543847E-17   -4.0136287894518376E-16  -8.027093936812163E-17   -2.915789945304304E-17   1.0279163110047929E-18   1.3171447432160474E-18   8.190051997491968E-19    4.6253384502044654E-20   -1.8092912012355282E-17  1.9123763137848515E-18   2.094346315686027E-21
9.0E-6                    -1.5347808374212348E-17  -7.079029807727963E-16   -4.171607440664824E-16   4.142145861839321E-17    3.818432191794397E-17    1.6103251182043736E-18   -2.6689881737132267E-18  -1.464988300877155E-19   -1.38893036274496E-16    5.670412421966054E-18    4.5769238627965805E-21
9.499999999999999E-6      2.6560682607425586E-16   7.891465847144912E-16    2.735992635607817E-16    1.7429630293356337E-16   5.309440589621668E-17    6.835243396121506E-19    -1.371643759676119E-18   -2.916236367174589E-19   -1.6054411818740217E-16  -3.2743537509317776E-18  -5.379451133562393E-21
9.999999999999999E-6      1.4984946080847962E-15   3.605194038240926E-15    2.4188796531774036E-15   1.246678598957102E-16    4.24121525938605E-17     9.609547004187248E-19    2.0044453115245988E-17   4.163908022641719E-19    -3.23132942209432E-16    -2.3599197436144656E-17  -2.243016007184739E-20
1.05E-5                   2.7643477422981964E-15   3.208381233855946E-15    3.881773322644193E-15    -8.08403817909947E-17    1.2321822616957184E-16   3.171596721305629E-17    2.6960180422522218E-17   1.5882609178812057E-18   -1.908812196352602E-15   -8.380342528620391E-18   2.3626274211027467E-21
1.1E-5                    2.209650049929963E-15    -2.4803325651847143E-15  3.091564072266422E-15    4.985807097642808E-16    5.47655461617405E-16     1.2947491642051646E-16   -3.545382907532182E-17   1.509170142354331E-20    -4.334489757177384E-15   6.624538077060336E-17    6.694245051865915E-20
1.15E-5                   4.891633679430792E-15    -2.2433266723143344E-15  5.6384204351433405E-15   2.4305602418830667E-15   1.5129903499666098E-15   2.537143425076858E-16    -6.481801067563219E-18   -4.484921876134699E-18   -6.79071021745697E-15    7.09456408468752E-17     -6.158358674328442E-21
1.2E-5                    2.758356676173971E-14    2.203123218358202E-14    2.0799738281322607E-14   4.162257980874512E-15    2.934557646992444E-15    4.762828816888957E-16    4.689691173845554E-16    1.860660824897082E-19    -1.869833154366784E-14   -1.5323107796389767E-16  -2.802404441314846E-19
1.2499999999999999E-5     7.825131350089853E-14    6.7078054171679E-14      4.58609265856983E-14     5.893428448062068E-15    5.921383927263785E-15    1.5619402471358064E-15   1.230016046935759E-15    2.477559153623489E-17    -5.195403018958124E-14   -3.866104833134471E-16   -2.4425929993414744E-19
1.3E-5                    1.3336803285174238E-13   1.0478706018801188E-13   6.523885537942554E-14    1.5479440515764755E-14   1.5524226648537588E-14   4.962160467771471E-15    1.5801242837470912E-15   4.4403194321345295E-17   -9.997756519276956E-14   -1.2796560881170918E-16  1.9090074789738674E-19
1.35E-5                   1.9819320974949176E-13   1.4974846144901527E-13   8.284557353132962E-14    4.1514941709433964E-14   3.833942546848418E-14    1.2072884177909256E-14   2.805901104797602E-15    2.6088167661648553E-17   -1.8638791529609277E-13  3.5671682352799264E-16   -1.3826037990887295E-18
1.4E-5                    4.3018263030969945E-13   3.337660098413743E-13    1.526149932888597E-13    8.251262354239148E-14    7.731456362048432E-14    2.6099211282067476E-14   1.0551292969209374E-14   5.949094299843583E-17    -4.480754399679339E-13   -4.739177595337502E-16   -7.433097007571395E-18
1.45E-5                   1.0871459069925486E-12   8.349753934420615E-13    3.5028068532802333E-13   1.5066080309372814E-13   1.462016542987565E-13    5.917982044603132E-14    3.1635239711212585E-14   4.0308651037400373E-16   -1.0282503516018999E-12  -3.8721560786490135E-15  -1.330094569757286E-17
1.4999999999999999E-5     2.2430844230856338E-12   1.6719072309245124E-12   6.823275881374402E-13    3.1920217911194233E-13   3.0365399757320785E-13   1.397573961210777E-13    6.983087626414357E-14    1.2459240919276816E-15   -1.8870926390954485E-12  -9.324887499433813E-15   -1.5477237691950762E-17
1.55E-5                   3.827717446674602E-12    2.7069111751670575E-12   1.0232256470887364E-12   6.977543489927689E-13    6.4869988589017E-13      3.1435002046126476E-13   1.3710820521801015E-13   2.5617063699253854E-15   -3.130513466039498E-12   -1.6940074046888378E-14  -4.910959206170026E-17
1.6E-5                    6.3771506487529175E-12   4.141670081524162E-12    1.2566626793985205E-12   1.3085183180008593E-12   1.2601185097683734E-12   6.538160282629672E-13    2.8372323796568484E-13   4.910359424449967E-15    -5.721551089335187E-12   -3.275901879529983E-14   -2.0189018953689275E-16
1.6499999999999998E-5     1.1432308468271623E-11   7.012105258057431E-12    1.7107334631267558E-12   2.062750321699779E-12    2.2151161125198303E-12   1.283333443326566E-12    6.186071184707978E-13    1.1170419994888066E-14   -1.1111337893815249E-11  -7.289079541213218E-14   -5.364729293090773E-16
1.7E-5                    2.013535849226846E-11    1.2638370594965944E-11   3.5423991895061346E-12   3.0679652313169667E-12   3.793303667645021E-12    2.4249579671684178E-12   1.291286820660461E-12    2.7524062814249273E-14   -1.9390859035314837E-11  -1.6625164090651031E-13  -1.0534925404516042E-15
1.75E-5                   3.1148596620229356E-11   2.1034308867986146E-11   8.327603655817401E-12    5.061589094191462E-12    6.617489259301601E-12    4.393794230718617E-12    2.4568652801662085E-12   6.272734795775484E-14    -2.853165763057517E-11   -3.5625780463246536E-13  -2.0302628074418123E-15
1.8E-5                    4.1100589742706275E-11   3.014939568970465E-11    1.666305164766147E-11    9.27429409025608E-12     1.1304824548357717E-11   7.493350871667767E-12    4.280644769072323E-12    1.293382183003174E-13    -3.669716780273831E-11   -6.992449342796697E-13   -4.702285513131014E-15
1.85E-5                   4.7806148597197E-11      3.749738554708417E-11    2.69935084493314E-11     1.6344538047107084E-11   1.7724999326221375E-11   1.1823924126683941E-11   6.9752335435507955E-12   2.535250453252698E-13    -4.4619856555367096E-11  -1.2720610477343797E-12  -1.1489818949725612E-14
1.8999999999999998E-5     5.201730527103064E-11    4.256244466955865E-11    3.6267752361846575E-11   2.513300957515018E-11    2.4664081639316517E-11   1.70773407059664E-11     1.0718190680381335E-11   4.925315582787305E-13    -5.3831788932001206E-11  -2.2105523328798573E-12  -2.5377809994919945E-14
1.95E-5                   5.518526940004246E-11    4.665853685859212E-11    4.214988562195803E-11    3.297307251211144E-11    3.045338527801858E-11    2.24307871112706E-11     1.5271111510819388E-11   9.447931941918646E-13    -6.290265923356146E-11   -3.737452134052002E-12   -5.032318579234055E-14
1.9999999999999998E-5     5.67208284401077E-11     5.009540722909879E-11    4.4405557392334265E-11   3.7580304051617895E-11   3.3975683022925134E-11   2.6710628821302746E-11   1.94828760985708E-11     1.7382169806927233E-12   -6.780962800564185E-11   -6.0558320891006854E-12  -9.551148316473156E-14
2.05E-5                   5.454620971078599E-11    5.0585527254636184E-11   4.387799337497498E-11    3.866310503884159E-11    3.490985480664856E-11    2.8897126820938814E-11   2.1433408839649142E-11   3.004928720996849E-12    -6.627820970948739E-11   -9.088749020603868E-12   -1.8199619942693202E-13
2.1E-5                    4.6972561414720195E-11   4.5347379442424765E-11   4.053504032703197E-11    3.728492142790032E-11    3.303988668857251E-11    2.8606226197505538E-11   1.97754325055144E-11     4.861260523123398E-12    -5.926268903260846E-11   -1.2328879754729936E-11  -3.4451299598396444E-13
2.1499999999999997E-5     3.2671849547952455E-11   3.4006770587756245E-11   3.322634201421075E-11    3.377233246460942E-11    2.7719447434655856E-11   2.5954331608115218E-11   1.528119025398114E-11    7.376657818651796E-12    -4.742122334071818E-11   -1.508556731913764E-11   -6.245011018451039E-13
2.2E-5                    1.0364132121080242E-11   1.8259208685320616E-11   2.1289387027513827E-11   2.6853606538748285E-11   1.8322083092623858E-11   2.0919993388345416E-11   1.04509765814354E-11     1.0481905343139792E-11   -2.8640298233596217E-11  -1.692962026402985E-11   -1.0624177729901787E-12
2.2499999999999998E-5     -1.974125746802E-11      -1.0184376580333133E-12  5.50415798512408E-12     1.4987498464256703E-11   4.987667548573488E-12    1.3164030605051201E-11   6.903983537588863E-12    1.3826201086771745E-11   -2.7127068470134043E-13  -1.775382849938368E-11   -1.6993469523610611E-12
2.3E-5                    -5.596395919653729E-11   -2.533546619493986E-11   -1.3123428585900828E-11  -2.067281317167972E-12   -1.158087246032902E-11   2.5924779922684962E-12   3.6865028104713E-12      1.6717205142190438E-11   3.8373808508146266E-11   -1.7347702556403958E-11  -2.578501126994228E-12
2.35E-5                   -9.891348506911315E-11   -5.751370008050384E-11   -3.5158724197069317E-11  -2.3431749058752243E-11  -3.1140757292570674E-11  -1.0496601261393088E-11  -9.15871438281221E-13    1.8294031429004655E-11   8.714850053356411E-11    -1.5204182646340494E-11  -3.722023854769384E-12
2.4E-5                    -1.534772043472241E-10   -9.992761698186819E-11   -6.272145064831686E-11   -4.85153693914663E-11    -5.4283602287446785E-11  -2.6306911064839675E-11  -6.801378786656457E-12   1.7899609850605338E-11   1.466882316800645E-10    -1.1063584767952092E-11  -5.081806301294868E-12
2.45E-5                   -2.237977162221747E-10   -1.5346655301094296E-10  -9.768301095931924E-11   -7.775623044553798E-11   -8.152962824551614E-11   -4.6038229523256285E-11  -1.3493922934833393E-11  1.5405444279663466E-11   2.1715258965650932E-10   -5.491236413526929E-12   -6.507505834289262E-12
2.4999999999999998E-5     -3.06773239889004E-10    -2.1705791532891624E-10  -1.4018809906595008E-10  -1.1197510933505156E-10  -1.124158501696012E-10   -7.07844848209174E-11    -2.4016590836221242E-11  1.123424713886463E-11    2.9664000912675263E-10   5.79617798851569E-13     -7.779333090588895E-12
2.55E-5                   -3.9324036483879765E-10  -2.8800733441039325E-10  -1.8875867771018156E-10  -1.5126948694756311E-10  -1.4590209285966694E-10  -1.0029830993429094E-10  -4.391346868547633E-11   6.026088251848764E-12    3.823415739955127E-10    7.073161459901847E-12    -8.69689990189454E-12
2.6E-5                    -4.754631237769393E-10   -3.634017721009853E-10   -2.4120142606848475E-10  -1.9452049669329072E-10  -1.814270988422642E-10   -1.3339407237631477E-10  -7.423594989376387E-11   1.2151495866258352E-13   4.724047021499115E-10    1.528310670604257E-11    -9.154537688145341E-12
2.65E-5                   -5.514241896959433E-10   -4.40964834157858E-10    -2.951389318061864E-10   -2.3963364255891767E-10  -2.189424970218815E-10   -1.6890656303687936E-10  -1.0789963673398104E-10  -6.818013281938957E-12   5.655180812137524E-10    2.6964204365525167E-11   -9.131092196156524E-12
2.7E-5                    -6.221858016149744E-10   -5.177680206757565E-10   -3.480357515198697E-10   -2.8401316164772263E-10  -2.57766256992319E-10    -2.0541453296499722E-10  -1.3618256827019244E-10  -1.5722959308802485E-11  6.591903388767938E-10    4.3004584195789906E-11   -8.583907458496306E-12
2.7499999999999998E-5     -6.871891690897098E-10   -5.884773064135744E-10   -3.971228428689E-10      -3.2497576599842634E-10  -2.957478353656046E-10   -2.4071953107530667E-10  -1.5760405226295786E-10  -2.749941413156672E-11   7.48897509724104E-10     6.298033006267939E-11    -7.324167231077202E-12
2.8E-5                    -7.420571517706105E-10   -6.462157504270867E-10   -4.393255943019611E-10   -3.600858059058334E-10   -3.2961509927375955E-10  -2.727431235953428E-10   -1.7710887090343814E-10  -4.232300037645493E-11   8.2795644435689E-10      8.56952272130196E-11     -5.000452440054088E-12
2.8499999999999998E-5     -7.790814670432035E-10   -6.856084382673314E-10   -4.712564565981629E-10   -3.8714777794466963E-10  -3.557807194154906E-10   -3.005063476260413E-10   -1.9758150589732515E-10  -5.950742508055603E-11   8.876515591182176E-10    1.099544439963029E-10    -1.2521575319586942E-12
2.9E-5                    -7.893218859768353E-10   -7.041884899305779E-10   -4.895073497457424E-10   -4.0357204778424935E-10  -3.7080891910013594E-10  -3.2311854669307643E-10  -2.1682396325119684E-10  -7.810765587828127E-11   9.185032569554678E-10    1.3501774679387028E-10   4.081361291791724E-12
2.95E-5                   -7.649715051980089E-10   -7.001874369357167E-10   -4.910553082128197E-10   -4.057356558178689E-10   -3.717084457822838E-10   -3.380671782227439E-10   -2.333604504100128E-10   -9.763144576547496E-11   9.123299017347702E-10    1.605557111045291E-10    1.09223917986726E-11
2.9999999999999997E-5     -6.997203217762366E-10   -6.690023194764051E-10   -4.731207443695646E-10   -3.894857744435944E-10   -3.5616681163157207E-10  -3.4140549879385504E-10  -2.494328540581085E-10   -1.181377651308221E-10   8.627012156556923E-10    1.8611140244828336E-10   1.917401857306424E-11
3.05E-5                   -5.868297144722154E-10   -6.017826890447493E-10   -4.324337679129777E-10   -3.5159516066961543E-10  -3.22115594601312E-10    -3.2926815634881197E-10  -2.641899764902953E-10   -1.3971625556473616E-10  7.631432950320181E-10    2.1043517495330233E-10   2.8981977239358824E-11
3.1E-5                    -4.182107469536041E-10   -4.873131960531247E-10   -3.648706733185645E-10   -2.903698850317032E-10   -2.6656882391879463E-10  -2.9829118142273943E-10  -2.6747963488816427E-10  -1.6192367631208586E-10  6.057650495047161E-10    2.3133191530356034E-10   4.0710505891848787E-11
3.15E-5                   -1.867260705689528E-10   -3.159040450680412E-10   -2.6610647072197494E-10  -2.044746790159159E-10   -1.8509874133546685E-10  -2.4492064362942836E-10  -2.462509140588312E-10   -1.8360732835054033E-10  3.8223477856610896E-10   2.4618337230762297E-10   5.456802791705322E-11
3.2E-5                    1.1084759330673652E-10   -8.286376029263077E-11   -1.3259249241635166E-10  -9.14808340801038E-11    -7.314478534944062E-11   -1.655224857667938E-10   -1.9718269297115733E-10  -2.0312164225399035E-10  8.562040030175912E-11    2.525293377305393E-10    7.020697327195328E-11
3.25E-5                   4.73650406003914E-10     2.1061678804346555E-10   3.81423372688434E-11     5.186746640277262E-11    7.16756639827265E-11     -5.7600537216052745E-11  -1.2863945302732226E-10  -2.187069286693952E-10   -2.8867866259275793E-10  2.4809862303995447E-10   8.669687941312778E-11
3.2999999999999996E-5     8.986484100607952E-10    5.594856574167069E-10    2.476893216684789E-10    2.2771678683484874E-10   2.4830112266069705E-10   7.935035757919751E-11    -4.902526479196359E-11   -2.2863808397074056E-10  -7.420893359038099E-10   2.3047078401057296E-10   1.0291918138172857E-10
3.35E-5                   1.3813331225237316E-9    9.577757111721415E-10    4.964420728477503E-10    4.3522259168088687E-10   4.5288261944517577E-10   2.440801227552338E-10    4.311441548672335E-11    -2.3080683508153443E-10  -1.2711203684492905E-9   1.9703256441763728E-10   1.180152443557347E-10
3.4E-5                    1.9141179962372797E-9    1.4000722316391784E-9    7.824244655847501E-10    6.700805491375788E-10    6.803418719339533E-10    4.342211384831887E-10    1.5528722864366084E-10   -2.2208882703887028E-10  -1.8661813581391845E-9   1.454793504686705E-10    1.314771800653293E-10
3.45E-5                   2.484401328193484E-9     1.8806823537123544E-9    1.100047454822259E-9     9.255152580460052E-10    9.253324767119004E-10    6.464828321969463E-10    2.904933121061565E-10    -1.9853165815446864E-10  -2.5124450516975475E-9   7.439167763942013E-11    1.4283418952748873E-10
3.5E-5                    3.0744004969915344E-9    2.391163708739186E-9     1.4397475642515251E-9    1.1937109158335324E-9    1.1820231738197994E-9    8.762063189201957E-10    4.442680357235935E-10    -1.567398843165765E-10   -3.191250520460059E-9    -1.6706657415148907E-11  1.5124798147630483E-10
3.5499999999999996E-5     3.6625846884023958E-9    2.91747086100297E-9      1.7887479181193223E-9    1.466301880038583E-9     1.4431433439441637E-9    1.1168636999824813E-9    6.113099085153435E-10    -9.522046510386046E-11   -3.879850345725243E-9    -1.277851425261048E-10   1.5533213850749402E-10
3.6E-5                    4.224576121790006E-9     3.4384158380171313E-9    2.1324071097596364E-9    1.7334297238232665E-9    1.6991464510574129E-9    1.3603796347465503E-9    7.907633560662183E-10    -1.4185318888579082E-11  -4.550293076148325E-9    -2.5860329893748437E-10  1.532454902962241E-10
3.65E-5                   4.732045433794813E-9     3.9267755085816785E-9    2.4552426944794383E-9    1.9825826470254217E-9    1.9380919159027397E-9    1.5980571032258523E-9    9.826506295163153E-10    8.585426145115685E-11    -5.169709167119285E-9    -4.083651194288116E-10   1.4292307651546853E-10
3.7E-5                    5.151030821723372E-9     4.352339725292064E-9     2.7409862745127763E-9    2.1988372352111776E-9    2.1461113803228723E-9    1.8205163917655937E-9    1.180426618409838E-9     2.0484187505819468E-10   -5.701803868823788E-9    -5.749266937104757E-10   1.2232642398368385E-10
3.75E-5                   5.442587560194777E-9     4.6844510938302755E-9    2.971982503913738E-9     2.3663568544108454E-9    2.3078275340078318E-9    2.0160336778347732E-9    1.368974714351095E-9     3.423685847076895E-10    -6.107514857081059E-9    -7.542118980634401E-10   8.966546069177691E-11
3.7999999999999995E-5     5.566217817823641E-9     4.892622812334495E-9     3.129062327151923E-9     2.4694344558783516E-9    2.4065306378119835E-9    2.1692351703933046E-9    1.530273475644021E-9     4.96423753464625E-10     -6.344759122369743E-9    -9.402952085698725E-10   4.356108851899986E-11
3.85E-5                   5.483316773289668E-9     4.946206297952971E-9     3.1925984862739252E-9    2.4922635351049456E-9    2.424717813240902E-9     2.262182431262065E-9     1.6509411756707567E-9    6.631391814999633E-10    -6.3693452294337595E-9   -1.1260220188016927E-9   -1.686095323650636E-11
3.9E-5                    5.158553924079183E-9     4.814561106933827E-9     3.144119705642167E-9     2.4186175926560264E-9    2.3454864387328646E-9    2.276951416816993E-9     1.7247608715452914E-9    8.374528834906869E-10    -6.137828993758804E-9    -1.3035377571677284E-9   -9.190181774727618E-11
3.95E-5                   4.560456709041987E-9     4.467897113832914E-9     2.967295966547892E-9     2.2328802473864736E-9    2.154319094895994E-9     2.1973649468850006E-9    1.748083817411132E-9     1.0136017973782774E-9    -5.610779938575851E-9    -1.464127214872137E-9    -1.8120030760712537E-10
3.9999999999999996E-5     3.6633624643656333E-9    3.878469778680072E-9     2.6480030207075585E-9    1.9222279197003668E-9    1.8403914123995026E-9    2.00956987839363E-9      1.7124839258504197E-9    1.1849672394926678E-9    -4.75518350312405E-9     -1.5974861045269742E-9   -2.8364235088682637E-10
4.0499999999999995E-5     2.450470452051655E-9     3.02238985451745E-9      2.17425942829614E-9      1.4785088679891333E-9    1.397098809466795E-9     1.7028525154039546E-9    1.6024516636323824E-9    1.3437877015797537E-9    -3.5463687859586993E-9   -1.6913557193608628E-9   -3.9733272616006927E-10
4.1E-5                    9.160565878733757E-10    1.8823012019823553E-9    1.5368406207659857E-9    8.988586454061659E-10    8.220256970098274E-10    1.2707489958528726E-9    1.4017309304427665E-9    1.4812358750099043E-9    -1.970119705364139E-9    -1.7323264337817928E-9   -5.196574218649193E-10
4.15E-5                   -9.337072273846807E-10   4.505513055038419E-10    7.306929787201361E-10    1.8547086821649526E-10   1.1664764183693848E-10   7.110650960284721E-10    1.1023340326279115E-9    1.5876437736131025E-9    -2.49088110811915E-11    -1.7074981802969054E-9   -6.473963039825012E-10
4.2E-5                    -3.079871774996512E-9    -1.2676861159068472E-9   -2.4317425434815596E-10  -6.543637942522265E-10   -7.137165298851443E-10   2.4860090840807246E-11   7.062828728472963E-10    1.6524518484798252E-9    2.2758037475976176E-9    -1.6058432210237948E-9   -7.767971841423979E-10
4.2499999999999996E-5     -5.4885617375478E-9      -3.251885625783477E-9    -1.3758151341088225E-9   -1.6074159440145364E-9   -1.6589603654817786E-9   -7.835167845397399E-10   2.1827017162176749E-10   1.6640955539805965E-9    4.901042596344855E-9     -1.4185352745608143E-9   -9.035090081853809E-10
4.2999999999999995E-5     -8.108376748021239E-9    -5.465136439572066E-9    -2.6491446171101983E-9   -2.653455938640794E-9    -2.702270270629692E-9    -1.704174435746263E-9    -3.6148859836185387E-10  1.6105738242711928E-9    7.800064732116273E-9     -1.1386084886051817E-9   -1.0223177922728596E-9
4.35E-5                   -1.0869238798142971E-8   -7.855059125281704E-9    -4.03585189753493E-9     -3.764927032176448E-9    -3.818545791059235E-9    -2.718857483277772E-9    -1.0350246131654193E-9   1.4809011721557956E-9    1.090148958560161E-8     -7.608465692008327E-10   -1.1267606527323932E-9
4.4E-5                    -1.3683461978726469E-8   -1.0355528760467947E-8   -5.500125570722481E-9    -4.907486945421957E-9    -4.974445173276271E-9    -3.800032006919086E-9    -1.796825805030463E-9    1.266527552394647E-9     1.4114125425735331E-8    -2.8242612766788664E-10  -1.2088602813989187E-9
4.45E-5                   -1.6448137686851834E-8   -1.2887482237951296E-8   -6.998385046620503E-9    -6.04063473924773E-9     -6.12970463711647E-9     -4.9123502753311105E-9   -2.626530583722526E-9    9.616681987320596E-10    1.732853460231383E-8     2.958482528117958E-10    -1.2592782479066953E-9
4.4999999999999996E-5     -1.9047767260384997E-8   -1.5358850282576425E-8   -8.479655853808792E-9    -7.117969084576108E-9    -7.238297707482015E-9    -6.0149181481629675E-9   -3.490932820122163E-9    5.627411087629237E-10    2.0418494712820123E-8    9.682791530051005E-10    -1.268003307980928E-9
4.5499999999999995E-5     -2.1357099115920468E-8   -1.766537890333898E-8    -9.886069370009656E-9    -8.087831267389311E-9    -8.248957777772383E-9    -7.0628760328443555E-9   -4.352833974273579E-9    6.820252505280714E-11    2.3242892072795028E-8    1.7234958107644125E-9    -1.2253372534899771E-9
4.6E-5                    -2.3244575694414343E-8   -1.9693341198169475E-8   -1.1154199838727608E-8   -8.895431092018643E-9    -9.106184407716113E-9    -8.008159069835923E-9    -5.178769399015582E-9    -5.204414210442968E-10   2.564932124421605E-8     2.5442948121735E-9       -1.1227115938899645E-9
4.65E-5                   -2.457643406694021E-8    -2.132337642455694E-8    -1.2217464366475603E-8   -9.486387996812116E-9    -9.752867753368847E-9    -8.800053736252486E-9    -5.939542821000119E-9    -1.1970559992850442E-9   2.7479808588140596E-8    3.4078413878884687E-9    -9.530268869456968E-10
4.7E-5                    -2.522143763602606E-8    -2.243463386339054E-8    -1.3009236120291224E-8   -9.810355177587218E-9    -1.0134078794494448E-8   -9.386016362273719E-9    -6.6041517416707176E-9   -1.949833013015981E-9    2.8577755118059926E-8    4.285916725209053E-9     -7.106433727781709E-10
4.7499999999999996E-5     -2.5056472383359116E-8   -2.2909512158810606E-8   -1.3466052341805703E-8   -9.823521115181994E-9    -1.0200395853427836E-8   -9.713076418923704E-9    -7.133938231973577E-9    -2.7611393449077633E-9   2.879490119888595E-8     5.145207561897695E-9     -3.914428050426288E-10
4.8E-5                    -2.3972959454846246E-8   -2.2639297872183394E-8   -1.3530374774270102E-8   -9.48997540541001E-9     -9.909762325310571E-9    -9.730258486438916E-9    -7.484044457341363E-9    -3.6078636085367106E-9   2.7997939601253643E-8    5.9478993766718606E-9    6.7345210082978264E-12
4.85E-5                   -2.1883454761369948E-8   -2.1530026431969022E-8   -1.3152794016923638E-8   -8.782803696765638E-9    -9.228524233558858E-9    -9.392170984163098E-9    -7.611761097521178E-9    -4.461923451122082E-9    2.6075293669614347E-8    6.652734539687339E-9     4.833170861172742E-10