% Model:              Untitled.mph
% Version:            COMSOL 6.0.0.405
% Date:               Jul 17 2025, 07:02
% Dimension:          1
% Nodes:              401
% Expressions:        11
% Description:        Point graph
% Time (s)                Displacement field, Y component Displacement field, Y component Displacement field, Y component Displacement field, Y component Displacement field, Y component Displacement field, Y component Displacement field, Y component Displacement field, Y component Displacement field, Y component Displacement field, Y component Displacement field, Y component
0                         6.304390059911888E-33    1.6791356271246272E-32   2.602209787786506E-32    3.4796422785951106E-32   1.3200656328641588E-31   1.7690864039087598E-31   6.655072352962482E-32    2.475353405157614E-32    -1.6870658390165624E-33  -2.2783269713313246E-31  -2.0114947444727792E-33
5.0E-7                    2.878425207173905E-25    -1.3530306626423598E-24  4.689125144334123E-25    -5.211496268873937E-24   -3.746552233037292E-23   -3.61373041292489E-23    -2.4743297124125656E-23  -2.9602526528823785E-24  -4.701804649276568E-25   1.4391970170292078E-24   3.0162058842963123E-25
1.0E-6                    -1.1280039644819438E-23  -9.849373972915688E-24   -6.668238564154593E-23   -1.5394979337624317E-23  8.033856775046283E-23    1.3394948569198832E-22   1.4449261587558439E-22   -7.03710945520733E-25    6.488569830025766E-24    1.9123129658523456E-22   -4.270732580018185E-25
1.5E-6                    5.488029165611511E-23    9.233226714471781E-23    1.790216837674937E-22    3.1728916176238544E-23   2.6139832346027505E-22   -2.6996395932094107E-22  -2.0722835904099748E-22  2.01238359758582E-23     -2.8071528369417115E-23  -6.49779713069067E-22    2.7305206721044053E-25
2.0E-6                    -1.438847160103965E-22   -3.8334513385740764E-22  2.361980480537497E-22    4.0575232296805577E-23   -1.6059060557738732E-21  -8.952546424695634E-22   -1.0763519184819754E-21  -1.314087209036321E-22   5.713088800010097E-23    1.1368822378361856E-21   -3.3086160308095947E-25
2.4999999999999998E-6     1.3310238356952294E-22   8.483260062713146E-22    1.6550959009867673E-21   2.1775081598289816E-21   3.742797316890077E-21    6.267050776286698E-21    3.6854267670513876E-21   5.048902473920853E-22    1.9429199391226394E-23   -6.5675348114448355E-21  5.079834489841692E-25
3.0E-6                    6.338517205876406E-22    -7.205493503865227E-22   -6.372180590369293E-21   -5.50051724822839E-21    -6.867687913921826E-21   -7.626711909084652E-21   3.889571982854342E-21    1.741020514980459E-24    -3.7982990584974597E-22  2.822556758306894E-20    3.9333725861216467E-23
3.5E-6                    -1.4864366285134128E-21  -3.9833314636955325E-21  -1.7415526557730804E-20  -1.7751077909213503E-20  -1.5455096930908101E-21  -1.997459154008455E-20   -2.7511954743443505E-20  -4.006127625396552E-21   2.874579059235175E-22    5.918576305569243E-21    -1.604826798301914E-22
4.0E-6                    -3.639272075856725E-21   1.7535266472433316E-20   3.2370254000993864E-20   2.831694116399125E-20    6.376370323931185E-20    2.667829898551002E-20    2.0987393549142103E-21   1.321830611436892E-21    2.154241563700728E-21    -2.56582502251801E-19    8.840654976918965E-23
4.5E-6                    7.965532589195077E-21    6.2075520583035605E-21   1.086336592093614E-19    1.6440491927039979E-19   -3.6233859822040065E-20  1.3317021686755571E-19   1.2908374392900726E-19   3.050705865044248E-20    -1.8284612833072375E-21  8.814334049173685E-20    5.651267386684285E-22
4.9999999999999996E-6     2.6596822683418337E-20   -1.2187516256178788E-19  7.751917826285685E-20    3.67592408539289E-20     -2.157450826965912E-19   -1.485185290249957E-20   1.2446676082049864E-21   -1.545971054539745E-20   -1.2691538527761969E-20  1.482022125063791E-18    -1.5722760082446032E-21
5.5E-6                    -3.10031882675795E-20    -1.942505650080689E-20   -1.837970080449179E-19   -1.113811742058444E-18   6.977614677280991E-20    -9.60324050164061E-19    -3.84317192706262E-19    -1.594670891228086E-19   5.45448437091917E-21     -1.1573440588808528E-19  -1.8902207916283302E-21
6.0E-6                    -1.466614576912022E-19   6.449378924196467E-19    -1.164838077533063E-18   -1.1866308450646646E-18  7.650895482197382E-19    2.3743776274906136E-19   4.058474856406029E-19    1.7113781901052103E-19   6.248678886858251E-20    -7.514909313015938E-18   6.891091840185575E-21
6.5E-6                    4.074651775299323E-20    2.82643786360078E-19     -1.4506264865727324E-18  5.826180230395743E-18    1.826728810443699E-18    6.027456984517559E-18    2.5903932572305507E-18   7.910832770351106E-19    1.8912771589968878E-20   -3.8555562603698685E-18  6.558337940222009E-21
7.0E-6                    6.113014436657135E-19    -2.738709833762044E-18   6.34953732057287E-18     1.1788160616208649E-17   2.1156326239821797E-18   1.2548471657955147E-18   4.1867958439533097E-19   -7.381538008034632E-19   -2.228935713098581E-19   2.9271054852041224E-17   -3.960291047052341E-20
7.499999999999999E-6      5.340481579206743E-19    -2.1250645072886144E-18  2.1675071335890576E-17   -1.3596008957252558E-17  -1.3387367089911017E-18  -1.912108404334727E-17   -2.877785723197554E-18   -2.465719912589974E-18   -3.273040305121566E-19   3.075961195026771E-17    -8.370101070764461E-20
8.0E-6                    -1.5044526454139474E-18  1.002802710753647E-17    7.341652538476826E-18    -4.973188758095527E-17   3.3452351518816808E-18   9.462770724145915E-18    2.7256178047231185E-17   6.139562574728904E-18    3.508813601244964E-19    -9.562628352361074E-17   6.0179157134728286E-21
8.5E-6                    -4.350483334585441E-18   1.2278445015249833E-17   -6.89932842787657E-17    2.8831766605905414E-17   5.1776512454888976E-17   1.1745414674332778E-16   1.0450898932518171E-16   1.81140619757209E-17     1.9100269498953226E-18   -1.8921155704915496E-16  -1.0708618346111455E-19
9.0E-6                    4.052004632332101E-19    -2.955966666190224E-17   -8.482324784197053E-17   2.4194767021390697E-16   1.6455260316787275E-16   1.493877011985434E-16    1.6505419338270752E-16   -2.7399983678752566E-18  1.5798310370657512E-18   1.1317128423457634E-16   -1.3283759556560504E-18
9.499999999999999E-6      2.1579343701065456E-17   -5.261356729987359E-17   2.45286652876995E-16     2.761578407422312E-16    3.345306004506401E-16    9.945347316942216E-17    2.5032897221725697E-16   -2.29488516528549E-17    -6.791972352838967E-18   5.009042924415076E-16    -3.0842077312770102E-18
9.999999999999999E-6      2.7282500338067092E-17   8.06318768678058E-17     8.847205391918848E-16    -5.0017354270116264E-17  6.202960971894164E-16    5.650659704935777E-16    8.652094002584353E-16    1.2747481216492194E-16   -1.7061455134632688E-17  -2.654030610330961E-16   -4.506227783436965E-18
1.05E-5                   -5.1487009034536534E-17  2.361106567622876E-16    9.142962667566978E-16    2.915233223970936E-17    1.4772617569581304E-15   2.335475483090318E-15    3.2034758655338112E-15   4.75042369679734E-16     6.697427944602226E-18    -2.435051950703348E-15   -1.4884703519282256E-17
1.1E-5                    -1.3222826729573369E-16  -5.611113350522797E-17   -4.9708884653002715E-16  1.950802329263333E-15    4.531448611692933E-15    6.16062381969368E-15     8.87704910247093E-15     6.702495115350001E-16    6.861820980719146E-17    -3.795207454744581E-15   -5.2392797002490025E-17
1.15E-5                   1.0505456310652225E-16   -6.559016009580622E-16   -1.0933912210348831E-15  6.546923702813097E-15    1.2496536088454468E-14   1.390117930034436E-14    1.9262354842647948E-14   8.646917249097459E-16    3.020524122547851E-17    -3.1712075903125342E-15  -1.1785943743421966E-16
1.2E-5                    6.083769171493459E-16    -1.6039760038758165E-16  4.974748927426921E-15    1.3478509905553936E-14   2.7246626689255956E-14   3.0407191827897095E-14   3.953926162460569E-14    3.0835889689228734E-15   -2.3311010296383284E-16  -7.036742447735054E-15   -2.3278620627101533E-16
1.2499999999999999E-5     4.286494420177662E-16    2.1490459871074707E-15   1.9261943691169452E-14   2.3051412107757682E-14   5.41262828298655E-14     7.059289855695952E-14    9.390026119585551E-14    1.0342226430427283E-14   -3.823600883011263E-16   -2.9779027244968844E-14  -6.077630496669648E-16
1.3E-5                    -7.060600288362201E-16   3.701274882589616E-15    3.042042329422487E-14    4.373626283208043E-14    1.1961363587991125E-13   1.7230505171418308E-13   2.3606429057708674E-13   2.415870063436974E-14    1.498010322807319E-16    -8.229479262453846E-14   -1.7036696269874735E-15
1.35E-5                   -2.6092892636548848E-16  1.1740349511746908E-15   2.6907578599732992E-14   1.0183292651940581E-13   2.763182070696237E-13    3.940155175872592E-13    5.331018814000495E-13    4.7554072552425555E-14   7.278516091926361E-16    -1.6594397240854328E-13  -4.045331190394962E-15
1.4E-5                    4.217057240906376E-15    -2.362090359741954E-15   2.8410777545708015E-14   2.316515268824412E-13    5.749362815337904E-13    8.113209043008869E-13    1.0796056034031432E-12   9.698534543555018E-14    -7.446640393722991E-16   -3.0916868939863713E-13  -8.578166305197346E-15
1.45E-5                   9.440132890883785E-15    4.5626401762182035E-15   8.340565049956279E-14    4.5214110828910034E-13   1.087082117135703E-12    1.59791747891341E-12     2.1228157950968478E-12   2.138908983596316E-13    -4.586952751440452E-15   -6.392561715942579E-13   -1.8365158227323604E-14
1.4999999999999999E-5     1.131578457658634E-14    3.358825324732195E-14    2.073978671513193E-13    8.057626798450926E-13    2.045026977178695E-12    3.1451066699238897E-12   4.150542027232099E-12    4.671274388599877E-13    -7.21810109373941E-15    -1.3797218131492725E-12  -4.048125153804498E-14
1.55E-5                   1.916045472999502E-14    8.470281709471203E-14    3.574193766892582E-13    1.4549098418129902E-12   3.8717275309350426E-12   5.9625820848742075E-12   7.71078152929355E-12     9.554572940808728E-13    -7.538606483361551E-15   -2.720649730068014E-12   -8.710999817688357E-14
1.6E-5                    5.199771236668852E-14    1.426062276133187E-13    5.363330913058487E-13    2.6243007168582317E-12   6.905089580097394E-12    1.0436640367043799E-11   1.3270503336150687E-11   1.8283778389960804E-12   -1.565856960713644E-14   -4.8108374471241065E-12  -1.7915236006672814E-13
1.6499999999999998E-5     1.155752672781132E-13    2.0527060700508937E-13   8.776854961435225E-13    4.39010090154289E-12     1.1356226764454304E-11   1.6982317670608747E-11   2.153883200010776E-11    3.3398171650597603E-12   -4.7440345789444674E-14  -8.112034320332762E-12   -3.5581733913006206E-13
1.7E-5                    2.1423112946448534E-13   3.6263521416688725E-13   1.4899491375494297E-12   6.896157104327269E-12    1.8010236571442664E-11   2.62567842855258E-11     3.323490536318085E-11    5.934452144251466E-12    -1.1079177956744849E-13  -1.35902840335763E-11    -6.865019755208121E-13
1.75E-5                   4.084890421005949E-13    8.350463713888362E-13    2.318491264120281E-12    1.111815420088623E-11    2.8334165179545757E-11   3.80119777539918E-11     4.679891652285741E-11    1.0277850277095784E-11   -2.143409016841553E-13   -2.1818007171792936E-11  -1.2825314705907418E-12
1.8E-5                    8.157559036342473E-13    1.785613703165323E-12    3.594156671130657E-12    1.8674319865126066E-11   4.2206142649673254E-11   4.919526629835122E-11    5.619246443305139E-11    1.6995652031149464E-11   -3.955818104734939E-13   -3.149067726179187E-11   -2.3168214433998643E-12
1.85E-5                   1.524145604542191E-12    3.0061420410512487E-12   6.530363303541158E-12    2.9567495676656426E-11   5.5426212792974736E-11   5.497742269505548E-11    5.397865159036428E-11    2.5990719168154477E-11   -7.230910949712094E-13   -3.9540872541422455E-11  -4.0428372386248644E-12
1.8999999999999998E-5     2.6290036338868524E-12   4.1004689465983E-12      1.2799833425354966E-11   4.039395599488484E-11    6.192704472474656E-11    5.336900100336192E-11    3.908108816697759E-11    3.577821702567983E-11    -1.2892432315665482E-12  -4.3547087976409197E-11  -6.757844364224131E-12
1.95E-5                   4.495057523127535E-12    5.4745789645997985E-12   2.2435331504000134E-11   4.674851883883493E-11    5.977311838446173E-11    4.7221358132904584E-11   1.9436941858097872E-11   4.372175464503864E-11    -2.2820360870980084E-12  -4.363030397135818E-11   -1.0659444574409964E-11
1.9999999999999998E-5     7.80142400193994E-12     8.949314634044903E-12    3.258545054754394E-11    4.7888201829841094E-11   5.262674534028032E-11    3.945629681948589E-11    3.63846063893635E-12     4.739238780903062E-11    -4.076062579883785E-12   -4.122889437237168E-11   -1.5645118353736152E-11
2.05E-5                   1.2897380233683722E-11   1.628306708642635E-11    3.952248055832831E-11    4.689270523108609E-11    4.344302044026731E-11    2.8201436979272298E-11   -8.518444486521171E-12   4.585457505338615E-11    -7.077767446296228E-12   -3.6649030809844975E-11  -2.1207457995632254E-11
2.1E-5                    1.901544785231075E-11    2.639173394544617E-11    4.199558170112682E-11    4.520742251713496E-11    2.940987817735555E-11    9.700468432422595E-12    -2.3066416327186157E-11  3.946898614833906E-11    -1.129829653254856E-11   -2.891215157908977E-11   -2.6556981946720107E-11
2.1499999999999997E-5     2.4510832965556827E-11   3.492007653865715E-11    4.1383993052823936E-11   3.938810311057021E-11    6.009431282104548E-12    -1.58702496798252E-11    -4.081155935019653E-11   2.8652459025125253E-11   -1.6143715522058326E-11  -1.7316024073947113E-11  -3.093763577716363E-11
2.2E-5                    2.8034420563877574E-11   3.785893034585228E-11    3.8202207751497065E-11   2.5053643792443198E-11   -2.626403333272175E-11   -4.53669842168092E-11    -5.572594733914349E-11   1.3582423266079596E-11   -2.077164574827302E-11   -1.6372847237228327E-12  -3.3868692619380153E-11
2.2499999999999998E-5     2.8998716099246405E-11   3.521782105738268E-11    3.0096919890311505E-11   2.0891234805681787E-12   -6.286412439283455E-11   -7.79759382903906E-11    -6.67350142048735E-11    -4.653860346035137E-12   -2.4518060243175663E-11  1.8744260012091954E-11   -3.4984730012216464E-11
2.3E-5                    2.668794094226617E-11    2.969497457986582E-11    1.4691557264770385E-11   -2.6106137062239438E-11  -1.0146221156219646E-10  -1.1557597435048673E-10  -8.562171135402107E-11   -2.3794221202029953E-11  -2.6755420179988248E-11  4.439335297304445E-11    -3.354492052608729E-11
2.35E-5                   1.976723171879729E-11    2.194151416063146E-11    -6.6175466544885464E-12  -5.6873804181995165E-11  -1.439130602975663E-10   -1.5918374167052834E-10  -1.271321559367125E-10   -4.283215691270099E-11   -2.6587493145627527E-11  7.51000272579907E-11     -2.828438468833224E-11
2.4E-5                    7.59152856355822E-12     9.179859466993969E-12    -2.968312616630443E-11   -8.995036352636035E-11   -1.9285262958829594E-10  -2.0900318850895175E-10  -1.9166090701001563E-10  -6.476755170657758E-11   -2.3232973900980824E-11  1.1144080649710329E-10   -1.8106972047444307E-11
2.45E-5                   -8.36820883061586E-12    -1.0790275510761807E-11  -5.257122325363588E-11   -1.2681655125163704E-10  -2.4921544362214087E-10  -2.666734993398424E-10   -2.6255863594964903E-10  -9.543186020429878E-11   -1.6746260184630105E-11  1.56402217633857E-10     -2.9225959405562306E-12
2.4999999999999998E-5     -2.530715577931317E-11   -3.608697055969976E-11   -7.800737135472846E-11   -1.7065365203039345E-10  -3.1245571299861016E-10  -3.332505735767673E-10   -3.227822128738518E-10   -1.3840244198264568E-10  -7.898743911290153E-12   2.1285358570867103E-10   1.6664816134543513E-11
2.55E-5                   -4.1118331819991E-11     -6.262829888688679E-11   -1.1013662307924277E-10  -2.2517903937518487E-10  -3.8044867635231664E-10  -4.050623420443448E-10   -3.7098625148403835E-10  -1.9132611957052308E-10  2.7146170324314814E-12   2.787941812732606E-10    4.0702683421221955E-11
2.6E-5                    -5.505059816703935E-11   -8.827516986135263E-11   -1.4964145970577705E-10  -2.906952214655579E-10   -4.4882372777255024E-10  -4.74075609432738E-10    -4.173875497199502E-10   -2.478714652571238E-10   1.5070566330792483E-11   3.4669801024428756E-10   7.041478893524026E-11
2.65E-5                   -6.725182063330888E-11   -1.1364171589670007E-10  -1.927982907300273E-10   -3.6174590706380045E-10  -5.119079325463533E-10   -5.320861788776487E-10   -4.661505339488097E-10   -3.030409106810054E-10   2.942143845184699E-11    4.0823836937479265E-10   1.0686736274985134E-10
2.7E-5                    -7.937334461590609E-11   -1.39709741347126E-10    -2.3483632849733246E-10  -4.3029257004781987E-10  -5.647985112514833E-10   -5.736401694224325E-10   -5.084356598191359E-10   -3.559464837667315E-10   4.64127192110423E-11     4.5917489779275036E-10   1.4933270497108597E-10
2.7499999999999998E-5     -9.539311511336107E-11   -1.66295791613994E-10    -2.732343631921327E-10   -4.905376743123407E-10   -6.041487716229489E-10   -5.961522317364462E-10   -5.330742920501563E-10   -4.0756414073125715E-10  6.755785635489597E-11    5.000304875568427E-10    1.953792248458283E-10
2.8E-5                    -1.195693169493463E-10   -1.925877948244272E-10   -3.0763032988902697E-10  -5.396950927729301E-10   -6.269835756677589E-10   -5.978555607219701E-10   -5.355950005480725E-10   -4.5664815188964324E-10  9.454265505410504E-11    5.328071878796778E-10    2.422426520677749E-10
2.8499999999999998E-5     -1.5227047456906568E-10  -2.1777879979785996E-10  -3.375178134698783E-10   -5.754703648517329E-10   -6.287937380526324E-10   -5.749553985281311E-10   -5.124656982484257E-10   -4.982583245387396E-10   1.2729959015478403E-10   5.565413321073726E-10    2.874996042863854E-10
2.9E-5                    -1.8855071315132675E-10  -2.40807225025796E-10    -3.610610343200317E-10   -5.943038970700058E-10   -6.025776423078642E-10   -5.21886900019256E-10    -4.548738849427129E-10   -5.257194707988921E-10   1.6307744376978854E-10   5.652051746277859E-10    3.2872568341775974E-10
2.95E-5                   -2.2136343677052248E-10  -2.5981588039355334E-10  -3.7597713425942627E-10  -5.91252648973721E-10    -5.39977810946498E-10    -4.3537437614037447E-10  -3.570098863203401E-10   -5.332090827038788E-10   1.977646483164588E-10    5.500321227711824E-10    3.635770214594964E-10
2.9999999999999997E-5     -2.4557757668520405E-10  -2.71692782135168E-10    -3.8013121256505825E-10  -5.604023588361588E-10   -4.3385841082333964E-10  -3.1524630507097443E-10  -2.256205322798759E-10   -5.164124517210474E-10   2.2793390111549727E-10   5.037615596757523E-10    3.9055985693120743E-10
3.05E-5                   -2.5910877524399555E-10  -2.722215746433609E-10   -3.7003249404243397E-10  -4.957244005545533E-10   -2.7986196517254116E-10  -1.5859401938177065E-10  -7.079872511336421E-11   -4.716245076038872E-10   2.5184511855368947E-10   4.2195693089800437E-10   4.0887248249900537E-10
3.1E-5                    -2.618022068008194E-10   -2.5780249618877E-10     -3.3928805704765427E-10  -3.9188895231706E-10     -7.561431563296878E-11   4.3806376526370234E-11   1.1225001360857414E-10   -3.9522577327732993E-10  2.6952321842790203E-10   3.0105602603735363E-10   4.1662497687532137E-10
3.15E-5                   -2.538143426631205E-10   -2.277070742512957E-10   -2.80488703167442E-10    -2.4391863975285225E-10  1.8057574612402032E-10   3.0169698685018606E-10   3.4247995369705606E-10   -2.8386775409609916E-10  2.822638929471548E-10    1.3736111881746467E-10   4.092280701297451E-10
3.2E-5                    -2.3363934537391786E-10  -1.8372378949260122E-10  -1.899006121814051E-10   -4.679014590388718E-11   4.89042324083638E-10     6.177039882637786E-10    6.299252276356844E-10    -1.3394524667392715E-10  2.908763159567558E-10    -7.162277363085044E-11   3.7995130475080754E-10
3.25E-5                   -1.9677316833742176E-10  -1.2660106801721955E-10  -6.983822866404337E-11   2.0281138532432362E-10   8.467233247146773E-10    9.868294482490514E-10    9.587718214649712E-10    5.948792330571463E-11    2.9302537174616806E-10   -3.2648127223575335E-10  3.2229108589126075E-10
3.2999999999999996E-5     -1.3745345459070164E-10  -5.3234399604965636E-11  7.448527800977506E-11    5.037984112531909E-10    1.246720267009239E-9     1.39914668102208E-9      1.299096069933264E-9     3.01443280190222E-10     2.823278057726561E-10    -6.269187235348296E-10   2.3209187768105325E-10
3.35E-5                   -5.297337940225484E-11   4.205246286150743E-11    2.4040309585078716E-10   8.50687786588434E-10     1.680327694126532E-9     1.8395382706768837E-9    1.6349001558240185E-9    5.92306809178498E-10     2.510385887509016E-10    -9.71854309727729E-10    1.0798060625314676E-10
3.4E-5                    5.4021784778801585E-11   1.6386334928875415E-10   4.299208226013722E-10    1.2364251379637813E-9    2.1384929067978015E-9    2.2882565241401836E-9    1.976299415198362E-9     9.244333559563069E-10    1.9420614548773096E-10   -1.3571928954251387E-9   -4.981480147882939E-11
3.45E-5                   1.7804662613209599E-10   3.133958223316574E-10    6.472004433994961E-10    1.6537143701752786E-9    2.6096790833315415E-9    2.7259644975527057E-9    2.3408678611401336E-9    1.285217793935936E-9     1.112748252087795E-10    -1.7732720112689737E-9   -2.4119456373151366E-10
3.5E-5                    3.150476492287826E-10    4.879812031384152E-10    8.944194711017332E-10    2.092364055533389E-9     3.0757362530827677E-9    3.1368466223430046E-9    2.7228124662536656E-9    1.6636747023927797E-9    3.975153080328664E-12    -2.20430074705771E-9     -4.669291094056944E-10
3.5499999999999996E-5     4.6377083978551813E-10   6.808641956025939E-10    1.1684560449321832E-9    2.5362301360422032E-9    3.510597190846894E-9     3.5043238424705208E-9    3.082214486790035E-9     2.0519380884934702E-9    -1.2666887362468592E-10  -2.6303948208812203E-9   -7.272173716878221E-10
3.6E-5                    6.237401447765341E-10    8.812848556656157E-10    1.4587846589530061E-9    2.964840767792704E-9     3.883761687761918E-9     3.805306444216084E-9     3.3657461757756426E-9    2.439833072006529E-9     -2.809807032291998E-10   -3.0310817720152226E-9   -1.018619713791355E-9
3.65E-5                   7.92845495634548E-10     1.0763634178746915E-9    1.7474488297966978E-9    3.3582792731252947E-9    4.165124970616397E-9     4.010777714368928E-9     3.537651962712692E-9     2.810507398614129E-9     -4.587592266791849E-10   -3.3874619721687614E-9   -1.331934140827838E-9
3.7E-5                    9.664176235555163E-10    1.2543644173092415E-9    2.0125205576613247E-9    3.697878186387619E-9     4.326731112360176E-9     4.0910648092077494E-9    3.5901718411940883E-9    3.1427825139273377E-9    -6.573302344219859E-10   -3.680742292322361E-9    -1.6532619095532296E-9
3.75E-5                   1.137097994298636E-9     1.4066700688094782E-9    2.233709329008249E-9     3.960084440901222E-9     4.341377306749194E-9     4.019496577693194E-9     3.5250706176667782E-9    3.4153492942431116E-9    -8.714028680513936E-10   -3.888738419598458E-9    -1.9674643517612262E-9
3.7999999999999995E-5     1.2947137479254076E-9    1.5268473983116588E-9    2.395753318983308E-9     4.111626408789287E-9     4.181600946903958E-9     3.7724405166737265E-9    3.3275790052455145E-9    3.6062086435415517E-9    -1.0941957058389065E-9   -3.9844339656916275E-9   -2.2606619581431036E-9
3.85E-5                   1.4269584214425848E-9    1.6081678004145231E-9    2.486952210928383E-9     4.114516910267779E-9     3.821111465963983E-9     3.3279687926264484E-9    2.9601972895813245E-9    3.6896931108668806E-9    -1.3181137564268295E-9   -3.9382142759911314E-9   -2.519449555819068E-9
3.9E-5                    1.5216407769725232E-9    1.642095771462968E-9     2.495374486894834E-9     3.936922231555181E-9     3.2371718964040735E-9    2.6660842066348885E-9    2.3822134010659836E-9    3.6376959883528184E-9    -1.534326165187133E-9    -3.7218561933097816E-9   -2.7280153378577794E-9
3.95E-5                   1.5689575712638322E-9    1.618711536350526E-9     2.407486509787838E-9     3.55824278561085E-9      2.4120411282523536E-9    1.7722222259510933E-9    1.576054535136016E-9     3.425097332962146E-9     -1.7320093804006801E-9   -3.3119165370346975E-9   -2.866385203779558E-9
3.9999999999999996E-5     1.5610303951495608E-9    1.5279899009639921E-9    2.2104534539321646E-9    2.96487975762085E-9      1.3342021228668018E-9    6.423102351653117E-10    5.581454467977545E-10    3.033203815710789E-9     -1.897977640706945E-9    -2.691385158231769E-9    -2.911539025980286E-9
4.0499999999999995E-5     1.4886354480794338E-9    1.3604269323467482E-9    1.8947067432513255E-9    2.1446113008066662E-9    1.1933250038633875E-12   -7.150745139226865E-10   -6.321417313848957E-10   2.4481697865935204E-9    -2.016686463259895E-9    -1.8496125996129194E-9   -2.8402139141046173E-9
4.1E-5                    1.3390624306921647E-9    1.106817573015298E-9     1.4534807759143583E-9    1.087040916415773E-9     -1.576321417209092E-9    -2.280682242808437E-9    -1.9557985065959967E-9   1.657982879692877E-9     -2.0707971283417404E-9   -7.820594412854337E-10   -2.631153031094124E-9
4.15E-5                   1.098868741140629E-9     7.585625007505625E-10    8.80589384010848E-10     -2.111335572359096E-10   -3.371931488991453E-9    -4.026548664601564E-9    -3.393850290733707E-9    6.529721886579525E-10    -2.04309371515862E-9     5.081949869939577E-10    -2.2661235139254424E-9
4.2E-5                    7.602496235431566E-10    3.098674878547282E-10    1.7059524128619565E-10   -1.7416541319062006E-9   -5.344264160458237E-9    -5.914775608378544E-9    -4.9489177254926076E-9   -5.691913365296285E-10   -1.9196251274773596E-9   2.007722876389102E-9     -1.7308906892179553E-9
4.2499999999999996E-5     3.2558142379639013E-10   -2.387724668803963E-10   -6.771777624152322E-10   -3.483667352354439E-9    -7.44005419522104E-9     -7.895236310835834E-9    -6.62390332663766E-9     -1.997466000961443E-9    -1.691883446624808E-9    3.691434039234146E-9     -1.017122313808282E-9
4.2999999999999995E-5     -1.9382887704916656E-10  -8.781671285484281E-10   -1.6540312525783965E-9   -5.40426394019476E-9     -9.596435803530597E-9    -9.90528500135887E-9     -8.39066850099385E-9     -3.6049988868210296E-9   -1.3557190588375466E-9   5.523394619136262E-9     -1.2437089553164174E-10
4.35E-5                   -7.835951010686898E-10   -1.5906585399932499E-9   -2.7404731773460033E-9   -7.457578456054342E-9    -1.1740908791117054E-8   -1.1871461031195078E-8   -1.017306830284814E-8    -5.351767632682823E-9    -9.078247621036055E-10   7.457522598772346E-9     9.394602789564635E-10
4.4E-5                    -1.4318744438127855E-9   -2.3521845132104725E-9   -3.9078961421100446E-9   -9.581975525363415E-9    -1.3790573976064448E-8   -1.3711715108975288E-8   -1.1859246935699787E-8   -7.1891944131579014E-9   -3.4365619848974145E-10  9.436764465992808E-9     2.159084285642967E-9
4.45E-5                   -2.1302834818767305E-9   -3.1345865002202585E-9   -5.120333760029324E-9    -1.1698163023559345E-8   -1.5652942284018865E-8   -1.533707022887031E-8    -1.3334897493736083E-8   -9.062503621148724E-9    3.404096323033136E-10    1.1392533206692654E-8    3.512172769568516E-9
4.4999999999999996E-5     -2.8690194280822386E-9   -3.907593034193624E-9    -6.3346365552448595E-9   -1.371138922361619E-8    -1.7228406194262084E-8   -1.665232704047099E-8    -1.4513861931861567E-8   -1.090981769318887E-8    1.1420983936029108E-9    1.324650323925485E-8     4.967673485988897E-9
4.5499999999999995E-5     -3.629398245343506E-9    -4.640098373596386E-9    -7.500395561623088E-9    -1.5517826683114137E-8   -1.8413260491630675E-8   -1.755772477035487E-8    -1.534549486276495E-8    -1.2660027244774887E-8   2.049402753290086E-9     1.491389688235715E-8     6.4834773627541606E-9
4.6E-5                    -4.379505280511796E-9    -5.2995419137888285E-9   -8.561538778453784E-9    -1.7012321854844818E-8   -1.910349785973236E-8    -1.795487183588764E-8    -1.5794752782301962E-8   -1.4231616559787223E-8   3.0402391687893447E-9    1.630578575908496E-8     8.006078927523296E-9
4.65E-5                   -5.076786587073416E-9    -5.849402699328004E-9    -9.459625389791792E-9    -1.8094257411998793E-8   -1.9199951990176166E-8   -1.7755944255189536E-8   -1.5811349108213062E-8   -1.55339507892266E-8     4.084669927750338E-9     1.733011247574954E-8     9.4728752436438E-9
4.7E-5                    -5.6758931718910815E-9   -6.248016432621535E-9    -1.0137298480724057E-8   -1.8669563280352537E-8   -1.8613461644796414E-8   -1.68899152906259E-8     -1.531521810865073E-8    -1.6472075591832595E-8   5.14729047418313E-9      1.7893888223240032E-8    1.0815068791816459E-8
4.7499999999999996E-5     -6.1358324395691795E-9   -6.452271056880059E-9    -1.0540693158794363E-8   -1.8649269643652952E-8   -1.726887105143302E-8    -1.530309730949487E-8    -1.4213962986920761E-8   -1.6953993844605538E-8   6.188285346406076E-9     1.79082854533805E-8      1.1959134784208513E-8
4.8E-5                    -6.421829828624049E-9    -6.425099535500886E-9    -1.0620792708732737E-8   -1.7948219366733883E-8   -1.5109997829350585E-8   -1.2959798950359459E-8   -1.2439757474282824E-8   -1.689676810721423E-8    7.1632825036054785E-9    1.72951380364741E-8      1.2827278947004804E-8
4.85E-5                   -6.50272271621953E-9     -6.14120549585757E-9     -1.0334320666992198E-8   -1.6488935240429798E-8   -1.2107978076616725E-8   -9.848763473773713E-9    -9.975545909690585E-9    -1.622894567049056E-8    8.023135306483073E-9     1.5992146848554383E-8    1.3339178171816997E-8