% Model:              Untitled.mph
% Version:            COMSOL 6.0.0.405
% Date:               Jul 17 2025, 07:02
% Dimension:          1
% Nodes:              401
% Expressions:        11
% Description:        Point graph
% Time (s)                Displacement field, Y component Displacement field, Y component Displacement field, Y component Displacement field, Y component Displacement field, Y component Displacement field, Y component Displacement field, Y component Displacement field, Y component Displacement field, Y component Displacement field, Y component Displacement field, Y component
0                         3.10597504647078E-34     1.3361816577036183E-33   5.7696931684052754E-33   1.1504462256440308E-32   7.045522262188244E-32    1.6674387533600752E-31   1.1323917170889457E-31   7.509668081434895E-32    -7.575138849083399E-35   -1.1841724283635938E-30  -1.0461353935033164E-31
5.0E-7                    -2.3842426641307502E-26  8.479511493438094E-26    1.8904810435993542E-24   -6.630436637317965E-26   5.011276724516522E-24    -1.1546293570637568E-23  -1.916746281765198E-24   -5.807375814178799E-24   8.486086086627742E-27    1.933186967787097E-22    1.6811305674344118E-23
1.0E-6                    -8.127573278646193E-26   -1.7205162680976235E-24  -1.0402805700062352E-23  -7.907596111390599E-24   -1.2440579607714176E-22  -7.577564923901507E-23   -3.902495969107282E-23   -2.7215846426031745E-23  1.0235537888513124E-25   6.092289006926305E-23    -2.51279439848396E-23
1.5E-6                    1.6151953652799879E-24   8.982705534725969E-24    5.30277856983437E-23     3.6720923984037265E-23   4.088482642893928E-22    2.6745168638076913E-22   -3.0641806192934294E-22  1.1824393962513748E-22   -1.0892572244415646E-24  -4.781652490698638E-21   4.58632678522967E-23
2.0E-6                    -1.0252058065270221E-23  -3.566145190575138E-23   -2.4963981301273944E-22  -1.5713946285596305E-22  -6.107104164718033E-22   -4.699731182743674E-22   6.585999799427643E-22    -1.1111736725755076E-22  4.136756249909884E-24    2.3536500717210304E-20   -1.6778415372391636E-24
2.4999999999999998E-6     2.0279437590132878E-23   6.65200843762253E-23     2.8617152412242063E-22   2.8331018391513895E-22   1.5381093542527503E-21   3.54374390417005E-21     5.7882580526107866E-21   3.9148502887446846E-22   -4.26143980315869E-24    -4.9013959536246876E-20  -6.149598321700294E-22
3.0E-6                    3.3005211887243857E-23   6.70152023275056E-23     1.4327400827999545E-21   9.82311910446688E-22     -8.480257012415702E-22   -1.2913098890790223E-20  -1.8957730593475024E-21  -2.2740972486395515E-21  -1.4150320839999503E-23  2.9711116299966093E-21   2.917171934727451E-21
3.5E-6                    -1.2548761779448244E-22  -3.7761377436649695E-22  -2.4857298092163717E-21  2.145790536579449E-22    -1.490528010291169E-20   3.278228097652663E-21    -6.144303057504028E-20   5.702726320403561E-21    3.437378046302742E-23    2.001453068952916E-19    -5.9286608987618674E-21
4.0E-6                    -1.5527502168194602E-22  4.241200174102847E-23    -7.54330571743421E-21    -1.5715016949229642E-20  3.3445526556065583E-21   6.4130698664375E-20      3.027194813863398E-20    2.4075210035610917E-20   1.5426653075266536E-23   -3.678042813401171E-19   -7.782949750953347E-21
4.5E-6                    3.697987191573625E-22    4.1688299628707E-22      9.686571991265732E-21    -1.7828955279932242E-20  1.3674834530245944E-19   -5.042239314260985E-20   3.3556826004636575E-19   -8.9582805937991E-21     -8.277179190576255E-23   -4.0717054488173265E-19  3.63250424249404E-20
4.9999999999999996E-6     1.4004930051906024E-21   1.0552061215052238E-21   5.1933835599431386E-20   1.4727223132846984E-19   1.0573012835477914E-19   -1.2603186764356067E-19  1.2732248689742708E-19   -5.323258883219994E-20   7.643385465058288E-23    1.1064392824197261E-18   5.0096388188917274E-21
5.5E-6                    -1.7154779040147728E-22  6.053942734014541E-21    -9.125555386592897E-21   2.3811653164577213E-19   -9.829295744303122E-19   5.065249439609212E-20    -5.911932180188972E-19   3.295721557213328E-19    -2.7515003252788254E-23  3.399371046190414E-19    -1.4681557933816473E-19
6.0E-6                    -9.027320580191183E-21   -1.1097907983431058E-20  -2.923313661145645E-19   -7.457538848792378E-19   -1.0780497971093578E-18  2.9324907271801765E-19   -1.133777008792094E-18   1.411502725725014E-18    -1.0387297748198203E-21  -3.265686972457599E-18   -8.057555345994861E-20
6.5E-6                    -7.620428692109694E-21   -6.478865204625153E-20   -1.6776382510096515E-19  -1.922188606338545E-18   5.29227963649076E-18     1.4226227728909164E-18   7.18057463386116E-19     1.7128592391870757E-18   6.306596829914568E-22    -7.596157612312339E-18   -6.625100914857201E-20
7.0E-6                    3.977263809699202E-20    3.511148020841415E-20    1.319875474191093E-18    1.997978600701028E-18    8.563147610789702E-18    1.684823142013405E-18    1.5278346728808483E-17   1.806289077474252E-18    7.271254073596859E-21    -1.469963876316716E-17   -1.624364303537333E-18
7.499999999999999E-6      6.821550079235067E-20    4.242091346948062E-19    2.050803919348204E-18    1.1152280874635788E-17   -1.6042865204363218E-17  -3.348914404730072E-18   3.8543557482586494E-17   1.2003895517021193E-17   2.953357627354945E-21    -8.256788808515506E-18   -3.7379840676165906E-18
8.0E-6                    -1.0864343557794661E-19  1.6967261725848272E-19   -2.9950710775069474E-18  4.096255169465413E-18    -3.894292257637163E-17   -6.83602082985801E-19    1.903493689278845E-17    4.083653273588883E-17    -3.0467849592191345E-20  3.2826212348039703E-18   -3.569762800891906E-18
8.5E-6                    -3.4940452287365097E-19  -1.908848662802711E-18   -9.949507000425506E-18   -3.8232421813392905E-17  3.618390879128163E-17    4.5029867537445595E-17   -2.699122143811139E-17   8.206980579769005E-17    -5.307121717210916E-20   -1.3930036282842885E-16  -1.2070940464867864E-17
9.0E-6                    7.924306661269969E-20    -2.460895274467965E-18   1.1614284222961859E-18   -5.1684583432774085E-17  1.7532411176520023E-16   1.1901320142102443E-16   1.8219743710062916E-16   1.6675737007146695E-16   4.5679205958603105E-20   -5.49692831928323E-16    -5.208808004381351E-17
9.499999999999999E-6      1.2028797465487983E-18   5.769304602379504E-18    3.8787874349638854E-17   9.151992503104094E-17    1.1294662787034636E-16   1.0378797659325223E-16   9.803961590389901E-16    4.095244551987877E-16    2.963785862830766E-19    -9.090777341550962E-16   -1.22239508889473E-16
9.999999999999999E-6      9.559627704177675E-19    1.532108871072108E-17    5.460551597811563E-17    2.953466079645308E-16    -2.3208609358143655E-16  1.1041555088175433E-16   2.204778987328592E-15    9.18449634651977E-16     2.8764482189560956E-19   -1.1422601576026238E-15  -2.1934069832771857E-16
1.05E-5                   -2.1970106617494904E-18  -5.953053060013696E-18   -3.0537645211943855E-17  9.598758217466856E-17    -2.595226836208486E-16   9.923786696900205E-16    3.5289422660169096E-15   1.8880368404568333E-15   -8.249389165065273E-19   -2.606640061203939E-15   -4.579404586009863E-16
1.1E-5                    -4.759208122724617E-18   -5.812010228029583E-17   -1.6417684133308218E-16  -5.653030158207459E-16   9.904230582807947E-16    3.4056514240507134E-15   6.222982765437142E-15    4.253127815032683E-15    -2.41179559851343E-18    -7.221693351613643E-15   -1.1325504544744695E-15
1.15E-5                   -5.757761724360995E-19   -3.625779634034762E-17   -2.8940533799976555E-17  -3.8115771288875527E-16  3.62255161223946E-15     5.9387586384581356E-15   1.546681411082297E-14    1.0001555664218693E-14   -1.3038299931493874E-19  -1.7021743593450777E-14  -2.7547970288475455E-15
1.2E-5                    1.1007669661506295E-17   1.484040524883766E-16    6.388317755496987E-16    2.0157858564756013E-15   5.822710946138471E-15    8.885650972939082E-15    4.189438777280068E-14    2.1251338424103108E-14   8.29543579996409E-18     -3.7672088875856134E-14  -6.3143855121101655E-15
1.2499999999999999E-5     2.1091574975017556E-17   2.645948588644921E-16    1.331603793539217E-15    4.921094946836578E-15    5.800872132933706E-15    2.3528665319412834E-14   9.644512605174645E-14    4.07958967634042E-14     9.797297541607447E-18    -7.534689879704219E-14   -1.3342931878149487E-14
1.3E-5                    9.566429523717401E-18    -1.297116101798698E-16   9.575671814879033E-16    4.4753255017896415E-15   9.658059863338261E-15    6.574267879965138E-14    1.7623632856906358E-13   7.777493548663322E-14    -1.524341240120376E-17   -1.26278568978918E-13    -2.5721372197759028E-14
1.35E-5                   -4.2292163179321564E-17  -7.90410420207459E-16    -1.9737723852342613E-16  2.4823365995974627E-15   3.67764221531452E-14     1.2996711407195732E-13   2.8338724431690437E-13   1.5504328494416298E-13   -4.651542697913494E-17   -2.072227960267062E-13   -4.8364478654110415E-14
1.4E-5                    -8.682569275910391E-17   -3.6834789301724953E-16  7.804009356347439E-16    1.1968446915797765E-14   1.0209483467873516E-13   2.0732796843009893E-13   5.329520673678654E-13    3.115908143542917E-13    -1.5562450358992248E-17  -4.35835745325696E-13    -9.653053240071723E-14
1.45E-5                   3.104750735514614E-17    1.75417942913641E-15     6.959383170003189E-15    4.759863099793174E-14    1.870178899275593E-13    3.846434466777628E-13    1.2204440447543656E-12   6.027679397048037E-13    8.198278508572853E-17    -9.956288154353362E-13   -1.9884726032525083E-13
1.4999999999999999E-5     3.7417254744140855E-16   3.1065104119601016E-15   1.873383429858903E-14    1.0383590049327987E-13   2.7564391574967023E-13   8.675538863975057E-13    2.528821723847916E-12    1.1003075465536333E-12   9.186408597565089E-17    -1.865267412514021E-12   -3.888804607937138E-13
1.55E-5                   5.998932395707892E-16    3.672219113772769E-16    3.5487594122223546E-14   1.5237381080588843E-13   4.831006039772983E-13    1.7539084859204411E-12   4.038903258931094E-12    1.878660443702139E-12    -1.2837990858430696E-16  -2.705528653365578E-12   -7.055033490638046E-13
1.6E-5                    2.467710054842652E-16    -3.979941459776414E-15   5.529311074241782E-14    2.0395109704020833E-13   1.086905361070301E-12    2.8517245988318313E-12   5.173139336650549E-12    3.010677314957064E-12    -4.354374788739E-16      -3.5129078543705564E-12  -1.223529576569291E-12
1.6499999999999998E-5     -2.248252685349517E-16   -7.243739476872597E-16   6.923947929488812E-14    4.0822364663790576E-13   2.2500478079273008E-12   4.1537903803051774E-12   7.148754513931786E-12    4.688671452550381E-12    -5.428300783025033E-16   -5.592962268807577E-12   -2.0760936984352833E-12
1.7E-5                    9.091436064320399E-16    1.5053142811388496E-14   7.894728209720969E-14    1.0103118111115856E-12   3.744361535284949E-12    6.755234601916173E-12    1.4087710111674277E-11   7.520199099234514E-12    -5.273011628676325E-16   -1.115830866694238E-11   -3.420595737843278E-12
1.75E-5                   5.1095267122598094E-15   3.4609289115076327E-14   1.5370714887317228E-13   2.033421827550199E-12    5.4152156739365E-12      1.274304361005357E-11    2.96634280229887E-11     1.267488925875443E-11    -9.64150760235894E-16    -2.098391858074895E-11   -5.435596406066357E-12
1.8E-5                    1.2032774828060369E-14   4.64456847946456E-14     4.3546596696884644E-13   3.0669879599985595E-12   8.289544928761338E-12    2.3190511045557354E-11   5.071417303761741E-11    2.132579684834245E-11    -2.6636022824338498E-15  -3.263808604281754E-11   -8.502283132536252E-12
1.85E-5                   2.0975718413052203E-14   6.028950738089089E-14    9.710548231274557E-13    3.868333458683033E-12    1.4662162164989124E-11   3.6050576950537525E-11   6.60141000493297E-11     3.341787045073291E-11    -6.8492295536080395E-15  -4.222970693421864E-11   -1.3435610586590966E-11
1.8999999999999998E-5     3.505373822837856E-14    1.1706155386157565E-13   1.5206920204281633E-12   5.529458326985774E-12    2.5888545435432318E-11   4.686756431580965E-11    6.522573666075319E-11    4.6839920490694986E-11   -1.5589933110199702E-14  -4.8260844898044903E-11  -2.1257020433268395E-11
1.95E-5                   6.557852696618325E-14    2.7452448901782366E-13   1.780698643965286E-12    1.0432316261489764E-11   3.974611734240223E-11    5.2231642461962033E-11   4.966648829244445E-11    5.8080154709219326E-11   -3.178387009318728E-14   -5.2595024720378265E-11  -3.2254836744277216E-11
1.9999999999999998E-5     1.3532044191375959E-13   5.781339301556483E-13    2.104536691619725E-12    1.9882450365518507E-11   5.102993234144489E-11    5.217541920594637E-11    3.083433558247845E-11    6.395402933654249E-11    -6.066802657404231E-14   -5.6794954819505684E-11  -4.503805181441209E-11
2.05E-5                   2.781631460793106E-13    1.0293943471837535E-12   3.905467082940886E-12    3.162119633883401E-11    5.5698577099306016E-11   4.869315868922652E-11    1.6771672681191054E-11   6.285358381709225E-11    -1.1502466655730938E-13  -5.845666793619842E-11   -5.6831817057315514E-11
2.1E-5                    5.33686820400738E-13     1.6001938020958091E-12   8.779901947420288E-12    4.086141677820328E-11    5.3970688878484014E-11   4.239679730720155E-11    3.5124551718318807E-12   5.4785504906769574E-11   -2.195632192236503E-13   -5.253451941567807E-11   -6.521276340172428E-11
2.1499999999999997E-5     9.533997087789555E-13    2.3787973935706305E-12   1.6791861956568255E-11   4.457970484197872E-11    4.8579819216741846E-11   3.1456610312373134E-11   -1.6746469393309745E-11  4.084804954066815E-11    -4.0935485452061237E-13  -3.6233284201336604E-11  -6.950863245519178E-11
2.2E-5                    1.6488422825269336E-12   3.796417187169832E-12    2.579375177465363E-11    4.4049558397576855E-11   4.056023501739932E-11    1.3735492837122667E-11   -4.2334798833638827E-11  2.2570033834832565E-11   -7.338295851412248E-13   -1.1657672961084491E-11  -6.978107838256843E-11
2.2499999999999998E-5     2.8622026248566227E-12   6.612688894829261E-12    3.287221853344879E-11    4.230553618330496E-11    2.7876459488886166E-11   -1.0754275972340344E-11  -6.32530936415538E-11    6.760029477711484E-13    -1.2856932235342771E-12  1.6663209722689308E-11   -6.410329778308598E-11
2.3E-5                    4.946692678921775E-12    1.1389959994578358E-11   3.651198909012541E-11    3.975555154416388E-11    8.005572160040989E-12    -3.9671033778858045E-11  -7.626323454123797E-11   -2.62618763871327E-11    -2.2382738526007165E-12  4.659402070209952E-11    -4.786812995163957E-11
2.35E-5                   8.15517835559797E-12     1.77755309571814E-11     3.7097706457962375E-11   3.332829907139653E-11    -1.9270061304813075E-11  -7.0356648081208E-11     -9.299781534376972E-11   -6.136006361591764E-11   -3.827180834559593E-12   8.076670086306223E-11    -1.736689575491918E-11
2.4E-5                    1.2329862168408102E-11   2.4354769338438038E-11   3.539913472092232E-11    1.961140847016176E-11    -5.185803462089891E-11   -1.0237222204775706E-10  -1.2854810099571696E-10  -1.066383400172248E-10   -6.235008047562567E-12   1.2433576765187692E-10   2.5706083954174603E-11
2.45E-5                   1.676255586061764E-11    2.9340825156862005E-11   3.103959598948372E-11    -2.0531189592106863E-12  -8.749857220304442E-11   -1.386475675754085E-10   -1.8411786799133383E-10  -1.608147639595177E-10   -9.43368423563385E-12    1.8030979479735653E-10   7.471902388073382E-11
2.4999999999999998E-5     2.0378393916769237E-11   3.140895548311728E-11    2.2590081300566578E-11   -2.922240161819747E-11   -1.2598109241841416E-10  -1.8380956865606522E-10  -2.459099282795298E-10   -2.207090917464305E-10   -1.3092050095315498E-11  2.4704283439351704E-10   1.2426011801661446E-10
2.55E-5                   2.2075891318442066E-11   2.98828046278854E-11     8.781200432015637E-12    -5.825447072518866E-11   -1.6983083587104116E-10  -2.403048251537247E-10   -3.0211865366436076E-10  -2.8475596545970063E-10  -1.659469805478267E-11   3.200705669277399E-10    1.7547837408231926E-10
2.6E-5                    2.0958009039039935E-11   2.4393067938487486E-11   -1.05391893722273E-11    -8.72438459962338E-11    -2.2237337810547313E-10  -3.0554595308478103E-10  -3.570621403062479E-10   -3.5387167295634613E-10  -1.914025200826136E-11   3.953155743676756E-10    2.343266966044309E-10
2.65E-5                   1.64583350478668E-11     1.4710225090353408E-11   -3.4159357091457314E-11  -1.1857799398891913E-10  -2.838794165640857E-10   -3.728432152724198E-10   -4.246427607402397E-10   -4.279475702529296E-10   -1.9909536617844793E-11  4.694176690744637E-10    3.0438753525575975E-10
2.7E-5                    8.568235621218619E-12    9.44277071118604E-13     -5.983162894836249E-11   -1.5847528244817828E-10  -3.493610851835713E-10   -4.350160087997289E-10   -5.078258783603043E-10   -5.019845279932867E-10   -1.8335519457092604E-11  5.377465575276793E-10    3.819918644087323E-10
2.7499999999999998E-5     -1.8988659651385548E-12  -1.6346161503894716E-11  -8.540046262787736E-11   -2.1221990316386385E-10  -4.1111563189854003E-10  -4.871352868152595E-10   -5.871125337334112E-10   -5.668478918004652E-10   -1.439815811111009E-11   5.944614628492074E-10    4.58454405774617E-10
2.8E-5                    -1.3463606681172851E-11  -3.640532304733853E-11   -1.1061552850171812E-10  -2.7870976723102073E-10  -4.6395984727969865E-10  -5.266542906825661E-10   -6.315556381695633E-10   -6.144832165660228E-10   -8.677835411777315E-12   6.356662538649865E-10    5.263508146609511E-10
2.8499999999999998E-5     -2.4802195265120067E-11  -5.862089923075535E-11   -1.3810619486479879E-10  -3.5000872790734295E-10  -5.074452585836095E-10   -5.520652930230284E-10   -6.227525106449089E-10   -6.422863810488944E-10   -1.947798663544504E-12   6.611522066592723E-10    5.829522767346447E-10
2.9E-5                    -3.568484643259391E-11   -8.264226824338985E-11   -1.7180496713242654E-10  -4.1660689050788716E-10  -5.425349951156826E-10   -5.616559109083831E-10   -5.689928242949058E-10   -6.51832763256873E-10    5.511255464409309E-12    6.7111820117087E-10      6.279164604526594E-10
2.95E-5                   -4.712293340247288E-11   -1.082483677247244E-10   -2.1347101560651587E-10  -4.728292758607936E-10   -5.665072691931319E-10   -5.527642317810402E-10   -4.948023318142743E-10   -6.42721041979592E-10    1.4313103817259907E-11   6.6077253240091E-10      6.590041683344545E-10
2.9999999999999997E-5     -6.057417108813666E-11   -1.3503290916944688E-10  -2.60445393364228E-10    -5.172398062428091E-10   -5.715353495432832E-10   -5.212804260907188E-10   -4.140681210741161E-10   -6.074379707406817E-10   2.5677513265894143E-11   6.189171400307641E-10    6.711082866751191E-10
3.05E-5                   -7.709890754011821E-11   -1.6204999890705313E-10  -3.069548492698164E-10   -5.489067676927373E-10   -5.480415248583164E-10   -4.6126719603811825E-10  -3.1318932680077304E-10  -5.326936084807218E-10   4.068111058401102E-11    5.323642718630796E-10    6.588127648337593E-10
3.1E-5                    -9.724515534707228E-11   -1.8777648461851542E-10  -3.475689369417798E-10   -5.64328800941167E-10    -4.890679504827464E-10   -3.650639042268305E-10   -1.6342039716120965E-10  -4.063940327105959E-10   5.970717196358114E-11    3.91903890172858E-10     6.180273969563574E-10
3.15E-5                   -1.2121243377826282E-10  -2.1058555343559158E-10  -3.7909246818990266E-10  -5.578365641396143E-10   -3.91584708421396E-10    -2.2463002059054677E-10  4.949239203846607E-11    -2.2353200644363597E-10  8.24464771244823E-11     1.9463179900500456E-10   5.442882585133016E-10
3.2E-5                    -1.4829022273614913E-10  -2.2924163217673728E-10  -3.9921226109460557E-10  -5.238881107145972E-10   -2.5442119653318013E-10  -3.409140361514512E-11   3.114466048444426E-10    1.4241056544653321E-11   1.0813379269208406E-10   -5.812838596440377E-11   4.307249499032818E-10
3.25E-5                   -1.7574179143990792E-10  -2.426538318056157E-10   -4.0421593601328804E-10  -4.5811894660698453E-10  -7.595897170233317E-11   2.0816773694992956E-10   5.972799259463772E-10    3.031345824879732E-10    1.3556445442215123E-10   -3.6404471609399504E-10  2.69336896433643E-10
3.2999999999999996E-5     -1.986903622078504E-10   -2.4892622192083193E-10  -3.889975463398444E-10   -3.5642156234803583E-10  1.4573195293154393E-10   4.994092022138479E-10    8.97635161416812E-10     6.395813587233676E-10    1.630031503016407E-10    -7.21171028933263E-10    5.452254823079216E-11
3.35E-5                   -2.119342693177791E-10   -2.447550108982092E-10   -3.4925466134620536E-10  -2.1423004201405298E-10  4.1105279737484715E-10   8.336963902972025E-10    1.2246480508394747E-9    1.0185901188661852E-9    1.8847735830762993E-10   -1.1272275936556299E-9   -2.1481308811925401E-10
3.4E-5                    -2.1237024380758223E-10  -2.2612553872944472E-10  -2.828506555882268E-10   -2.7782230277210642E-11  7.179842004818529E-10    1.2025238958360999E-9    1.5939059882594938E-9    1.4321904483103226E-9    2.1042069853761152E-10   -1.5777079191182854E-9   -5.354909437340829E-10
3.45E-5                   -1.9971247244168897E-10  -1.9002303628214924E-10  -1.888089849590493E-10   2.0395486918439628E-10   1.0628328152274074E-9    1.5948944773313153E-9    2.005725136852122E-9     1.8709519411152434E-9    2.2787330786904517E-10   -2.0634401253490666E-9   -9.007372212801302E-10
3.5E-5                    -1.7493275892346802E-10  -1.3572491024356674E-10  -6.599916210566728E-11   4.793472150575462E-10    1.4405624642444507E-9    1.9980352275421084E-9    2.4419835722380966E-9    2.3257457457627293E-9    2.3972165914788556E-10   -2.5686991058529635E-9   -1.3006739097473837E-9
3.5499999999999996E-5     -1.3822567985680559E-10  -6.437421886797311E-11   8.612326870911549E-11    7.962209395509321E-10    1.8432676715596111E-9    2.39855487292214E-9      2.8735120954347226E-9    2.785604662892084E-9     2.436670917239801E-10    -3.071679567334544E-9    -1.7237658505226287E-9
3.6E-5                    -8.845473777633067E-11   2.294283162034244E-11    2.6581679280853863E-10   1.1530959003972163E-9    2.258265684642158E-9     2.7826678168672657E-9    3.2673929196408647E-9    3.2326971029433466E-9    2.361465724816592E-10    -3.547500758860527E-9    -2.1587533853385058E-9
3.65E-5                   -2.410171779155426E-11   1.267332226332837E-10    4.694474815019264E-10    1.5472840452712393E-9    2.6679545763480892E-9    3.135188631797855E-9     3.5921778080284186E-9    3.6396912852320776E-9    2.1341284689438052E-10   -3.9709581498502864E-9   -2.5944609904913935E-9
3.7E-5                    5.5655137492458296E-11   2.4841976220087436E-10   6.942781424073586E-10    1.9710742415026916E-9    3.051123228071619E-9     3.4380856426861736E-9    3.82255346865849E-9      3.972680201968126E-9     1.7267340081514382E-10   -4.316278007721106E-9    -3.016616156727036E-9
3.75E-5                   1.5059790486127657E-10   3.8781598538689384E-10   9.401664193985018E-10    2.40904853721409E-9      3.3838354913855806E-9    3.6690886186486378E-9    3.940539464090627E-9     4.197385695861357E-9     1.1230466065818776E-10   -4.554800863567262E-9    -3.404571056108801E-9
3.7999999999999995E-5     2.596298313133981E-10    5.412692280538242E-10    1.2072514548858012E-9    2.838250652247603E-9     3.6396971600606562E-9    3.80110389211034E-9      3.930270561443035E-9     4.283701542570871E-9     3.143836962469304E-11    -4.654104947660006E-9    -3.731277818868884E-9
3.85E-5                   3.810879974493308E-10    7.024343422007175E-10    1.491186166388587E-9     3.230846126449933E-9     3.7911987857375735E-9    3.804038389263134E-9     3.770349767751808E-9     4.205960378447643E-9     -7.016534969527665E-11   -4.580373806892376E-9    -3.966374809316358E-9
3.9E-5                    5.132692645869434E-10    8.647587441244949E-10    1.7802790033540748E-9    3.5579803960867883E-9    3.8125157937071394E-9    3.649218078755077E-9     3.431374545492198E-9     3.940851772410098E-9     -1.9183322436669408E-10  -4.302424648037737E-9    -4.079424950238407E-9
3.95E-5                   6.549228111164651E-10    1.0229135503362386E-9    2.056805016548363E-9     3.793233068117798E-9     3.681528321182174E-9     3.3135780123284494E-9    2.8817240275889834E-9    3.4669000113590626E-9    -3.320287402450699E-10   -3.794808517741853E-9    -4.041425318745321E-9
3.9999999999999996E-5     8.046964744580308E-10    1.1717846150080522E-9    2.30065748906745E-9      3.9139188022970575E-9    3.3792613659919516E-9    2.7808489164468412E-9    2.098583194649847E-9     2.7665446952415787E-9    -4.890547426341117E-10   -3.0390148341339832E-9   -3.825661715504365E-9
4.0499999999999995E-5     9.588578966428228E-10    1.3044460850308485E-9    2.49220156129362E-9      3.89943709133683E-9      2.8883599708729707E-9    2.040608493847056E-9     1.0788020709982492E-9    1.827929206132347E-9     -6.615586246664592E-10   -2.023532574339415E-9    -3.409853846995751E-9
4.1E-5                    1.1084525676921451E-9    1.4113889843333652E-9    2.6133033146727273E-9    3.728142018647895E-9     2.193801478864049E-9     1.0880823102922698E-9    -1.5661396870527082E-10  6.445724971190746E-10    -8.47779828486725E-10    -7.439323620012429E-10   -2.7794639226827638E-9
4.15E-5                   1.2385810597023947E-9    1.4814812250385788E-9    2.6476218801304486E-9    3.375853561606568E-9     1.2863194128519356E-9    -7.451470439845679E-11   -1.5703168726473578E-9   -7.838839267589188E-10   -1.043714389265657E-9    7.961765675240391E-10    -1.9298892784292414E-9
4.2E-5                    1.3315430426359103E-9    1.5032545547424227E-9    2.5809042182752877E-9    2.8181490500626167E-9    1.656352336817867E-10    -1.4366118887782247E-9   -3.1276294845265495E-9   -2.4461402521477282E-9   -1.2416486928859487E-9   2.582806563166095E-9     -8.658384490118006E-10
4.2499999999999996E-5     1.372432798045832E-9     1.4654104196332666E-9    2.400612892756346E-9     2.035570923955634E-9     -1.1588409571965081E-9   -2.9786289775524657E-9   -4.812426274901893E-9    -4.3118262698079854E-9   -1.4303126847985E-9      4.588052070551096E-9     4.0107439554586897E-10
4.2999999999999995E-5     1.3531899445114911E-9    1.3570955255050192E-9    2.094465692646478E-9     1.0186987043004372E-9    -2.6687066752794834E-9   -4.6710554951814335E-9   -6.6215858436855505E-9   -6.329563653356823E-9    -1.596433514533671E-9    6.766833176280716E-9     1.8536638042035962E-9
4.35E-5                   1.271844508343522E-9     1.1690127629730087E-9    1.6493889665537867E-9    -2.2938468666805042E-10  -4.336047479014035E-9    -6.472727355558496E-9    -8.537406247408758E-9    -8.432519781996605E-9    -1.7263506594116868E-9   9.056206515418605E-9     3.4676155946840786E-9
4.4E-5                    1.1275205186893572E-9    8.950642022701852E-10    1.0531981508814686E-9    -1.6933384591875042E-9   -6.121278250799104E-9    -8.329541773426191E-9    -1.0501783390157063E-8   -1.0545273001346316E-8   -1.8066642001534486E-9   1.1378279641316106E-8    5.207923230600918E-9
4.45E-5                   9.153964663839566E-10    5.329905908859899E-10    2.9923165179158663E-10   -3.3470097553285907E-9   -7.971407548967726E-9    -1.0175223080770327E-8   -1.2416801791704352E-8   -1.2585983705642054E-8   -1.8240630324011933E-9   1.3644999117482853E-8    7.025892453769403E-9
4.4999999999999996E-5     6.259516496593492E-10    8.341435367468214E-11    -6.089248512911604E-10   -5.154738249738077E-9    -9.820509182370418E-9    -1.1934204496441592E-8   -1.4169386906987673E-8   -1.4465014006065127E-8   -1.7651994925567643E-9   1.5761616942267365E-8    8.858649147728555E-9
4.5499999999999995E-5     2.493217297050456E-10    -4.510771424532418E-10   -1.6560197778461949E-9   -7.0719698481775316E-9   -1.1592267765264044E-8   -1.3525168162720936E-8   -1.565507558357392E-8    -1.6084823694794132E-8   -1.6172082268647258E-9   1.762727764593196E-8     1.0631247269122458E-8
4.6E-5                    -2.1840595243127542E-10  -1.0646339736116308E-9   -2.8175443011346837E-9   -9.044860568453551E-9    -1.3203552175896255E-8   -1.4863961549808481E-8   -1.678396767108684E-8    -1.734300798107164E-8    -1.3687774169007867E-9   1.9134349298380686E-8    1.2260392640445146E-8
4.65E-5                   -7.712650973782181E-10   -1.744829629522802E-9    -4.063249483495792E-9    -1.100864962720296E-8    -1.4568289473382148E-8   -1.5866001694589544E-8   -1.7475354236339195E-8   -1.813697432563904E-8    -1.011305054218754E-9    2.016980459216502E-8     1.365895047984312E-8
4.7E-5                    -1.393916858081437E-9    -2.4703041371295326E-9   -5.358763962485352E-9    -1.2885472350411102E-8   -1.560098482540838E-8    -1.644903024034981E-8    -1.765491863827613E-8    -1.8369002806810715E-8   -5.397648024811415E-10   2.0620764154556726E-8    1.474064519607433E-8
4.7499999999999996E-5     -2.065329917067712E-9    -3.2120830159134814E-9   -6.664734899057024E-9    -1.458362324499516E-8    -1.6219034557933633E-8   -1.6536403528726657E-8   -1.725699454762791E-8    -1.7951808464179084E-8   4.680312417670944E-11    2.0383270445277777E-8    1.542409920002081E-8
4.8E-5                    -2.762614937039024E-9    -3.9379255593492276E-9   -7.935071605471624E-9    -1.6000571456011444E-8   -1.634394607343038E-8    -1.6060310971500524E-8   -1.6226419634947925E-8   -1.6814606088730998E-8   7.450006637433655E-10    1.937090425763762E-8     1.563560414543279E-8
4.85E-5                   -3.462659968861192E-9    -4.616162936962498E-9    -9.115954810935062E-9    -1.7030264166164345E-8   -1.59034944554206E-8     -1.4964779474941506E-8   -1.4518936525863017E-8   -1.4908669397412856E-8   1.5466786682167518E-9    1.752029339255864E-8     1.531135214488781E-8