% Model:              Untitled.mph
% Version:            COMSOL 6.0.0.405
% Date:               Jul 17 2025, 07:06
% Dimension:          1
% Nodes:              401
% Expressions:        11
% Description:        Point graph
% Time (s)                Displacement field, Y component Displacement field, Y component Displacement field, Y component Displacement field, Y component Displacement field, Y component Displacement field, Y component Displacement field, Y component Displacement field, Y component Displacement field, Y component Displacement field, Y component Displacement field, Y component
0                         8.081083703481674E-35    4.151114371215293E-34    2.50597611825385E-33     5.037698040837108E-33    8.855246291310953E-33    1.5823541149739127E-31   9.734269251554282E-31    6.081894459175602E-31    -1.680280437510909E-31   -4.73477154670349E-31    -1.5064667156202616E-30
5.0E-7                    -3.0950314122806504E-27  2.1597588730338484E-26   8.231337656248609E-25    -5.204486797452763E-25   1.5980427817707528E-23   -2.0500777464986524E-23  -1.5257913633630582E-22  4.181558208790979E-23    1.0730305924148529E-23   7.28414282208908E-23     2.5482230399342114E-22
1.0E-6                    -4.644957613371501E-25   -1.7795740798143883E-24  -9.484921324613469E-24   -1.3814650510384652E-24  -1.0383230943535124E-22  5.747676259459471E-23    6.349621862872609E-23    -1.6590336670297584E-21  2.1255540430922886E-22   1.447758065146784E-23    -5.685540114387087E-22
1.5E-6                    1.7667922298364322E-24   8.881372677540622E-24    2.8966903343692387E-23   1.5109181240249546E-23   1.3005974476982115E-22   -1.6544054289523216E-22  1.1324514618420265E-21   9.525685147208866E-21    -1.3562746222498118E-21  5.187660125528041E-22    4.63153750327822E-22
2.0E-6                    7.508537732620842E-25    -6.1072891114922975E-24  1.5566521475542954E-25   -5.856552255841487E-23   4.054564305986665E-22    -3.0841569486686344E-22  -4.1760009580716E-21     -2.0904252611371E-20     2.9867665359212748E-21   -3.1369353072709526E-21  8.407722214023277E-21
2.4999999999999998E-6     -1.0309749891289043E-23  -5.641178885474598E-23   -1.3625073102171334E-22  7.008875088618885E-23    -7.829163394976636E-22   3.0955556978339507E-21   1.1579163007041566E-20   4.985107988263158E-21    -1.6888615692163807E-21  -3.646413079102832E-21   -4.796720653208989E-20
3.0E-6                    -5.584848639242361E-24   7.232379609579576E-23    -2.762039892556059E-23   1.7286052949787855E-22   -2.0634036106052346E-21  -5.973446218612692E-21   -4.358754432534435E-20   7.14903312467849E-20     -6.417388099809741E-22   2.1630182874344974E-20   9.643491859604432E-20
3.5E-6                    7.539974515120827E-23    3.728901871355359E-22    8.332689395278861E-22    -3.891715609749939E-22   4.558611083008031E-21    -3.445969073178205E-21   1.0504349530972036E-19   -1.664936851542026E-19   -3.891742395492406E-21   2.0457076999646072E-20   1.8388921855380537E-20
4.0E-6                    3.449203099649512E-23    -5.769566297273897E-22   -2.236127402456851E-22   -7.711606678820224E-22   1.2725181283140677E-20   4.0034962608342165E-20   8.878230492611907E-20    6.42975260944237E-20     -5.146413393407774E-20   4.274758370843175E-20    -4.625767726776565E-19
4.5E-6                    -4.496623637466159E-22   -1.900299802232892E-21   -2.9841731577073146E-21  1.1152899220355502E-21   -2.279310660418998E-20   2.465932555923165E-20    -7.549994075719428E-19   8.836317479290637E-19    1.4010548553150076E-19   -4.0053938628603233E-19  5.799910108780335E-19
4.9999999999999996E-6     -1.7980310057647924E-22  3.3660486325179463E-21   3.6958578375704956E-21   5.197684149021101E-21    -7.410706958765362E-20   -1.6456187153672864E-19  5.089967863938468E-19    -1.0574403576670675E-18  2.643765197694529E-19    -7.361359695374518E-19   7.311042975829152E-19
5.5E-6                    1.8644497461182175E-21   6.664625916343214E-21    -7.5438349159800915E-22  -4.610660725976703E-21   6.62155078421262E-20     -1.8418640102030043E-19  2.452134865028923E-18    -3.5006063690548964E-18  -8.127434737836835E-19   2.168174346693186E-18    -2.5726727134442226E-18
6.0E-6                    5.043367901622717E-22    -1.5905155331644085E-20  -2.9941195867744474E-20  -3.519471812472313E-20   3.6498762225728736E-19   4.587878454757157E-19    -1.5013661439810299E-18  5.430138882327166E-18    -1.242033407155161E-18   3.385515195284115E-18    -7.500385966067594E-19
6.5E-6                    -6.5322170036035415E-21  -1.5970027765056814E-20  5.449033547022662E-20    -3.708633125698658E-22   -6.555882384330567E-20   8.171381411882751E-19    -2.883346053266472E-18   1.673285811548675E-17    2.519712844050011E-18    -6.767542673075679E-18   5.049106104749957E-18
7.0E-6                    9.674085219365587E-22    7.51978544558976E-20     1.9364149170137783E-19   1.6358565993922621E-19   -1.4601132665995843E-18  9.700746920470615E-19    5.0085420537375025E-18   -3.7960086143769844E-18  5.009075704140019E-18    -1.4911538894777447E-17  -6.935006211394016E-18
7.499999999999999E-6      2.957206361266516E-20    3.9023098103476774E-20   -2.431355529598523E-19   9.623396256988079E-20    -4.671548362821004E-19   2.3689967439010224E-18   1.2777502833283203E-17   -3.426511223265871E-17   -4.684341124100321E-18   1.1898400814115253E-19   -3.2901998868059764E-17
8.0E-6                    -2.4391503869859213E-22  -3.605017861377306E-19   -9.881665546678507E-19   -6.6582785150004695E-19  4.735974102534894E-18    -4.851106930097779E-18   3.3072048757784456E-17   4.405451257485738E-18    -1.7568293468725978E-17  1.9947097088674256E-17   -2.238059788872954E-17
8.5E-6                    -1.4703686310098275E-19  -2.867475454432261E-19   1.9901465451692741E-19   -8.231384894558926E-19   4.569658438603125E-18    -2.541930217745215E-17   6.882110916292161E-17    1.122098423720382E-16    -5.479550776419087E-18   -2.1470504312174315E-17  7.500713485716831E-18
9.0E-6                    -1.4840058918774252E-19  1.3974064410523805E-18   3.3617986146926504E-18   2.2501560560323553E-18   -6.482273972756926E-18   4.617749251032471E-18    1.4267057594641347E-16   2.90940751224082E-16     2.677775806539766E-17    -2.069856187936656E-16   -2.012707828342094E-16
9.499999999999999E-6      4.359329194791869E-19    2.235395402576082E-18    2.7254646712519953E-18   5.038035433108734E-18    -3.891561517803308E-18   1.623010278834058E-16    4.614264878568749E-16    5.88739309241654E-16     2.7472192471469886E-17   -5.178391353611753E-16   -8.77013286372037E-16
9.999999999999999E-6      1.1588721559053065E-18   -3.219605802188081E-18   -5.596188086257255E-18   -2.6971141969919407E-18  2.6539187090421767E-17   2.662104816077446E-16    1.1221199317722013E-15   5.309356237343395E-16    -1.619892789713224E-17   -8.633352395055296E-16   -1.5761650748029761E-15
1.05E-5                   8.016875977258858E-20    -1.1014707172027933E-17  -1.2966762202336323E-17  -1.2335670174223048E-17  2.7971107637236455E-17   -2.7587652891657473E-17  1.9669020603745706E-15   -8.801935636943416E-17   -1.1744633131966395E-16  -1.7507097629493593E-15  -2.333225075176162E-15
1.1E-5                    -3.769497279946982E-18   -1.1563230673095919E-18  -3.323754333367177E-18   1.2871134732022189E-17   -2.7948319863690497E-17  -9.123469718265246E-17   4.3088911471266005E-15   2.0060549539375308E-15   -5.015264439539902E-16   -4.962298999518573E-15   -6.603243137307652E-15
1.15E-5                   -5.904463523754369E-18   3.2065744840628525E-17   2.6344947381552147E-17   6.784335128924001E-17    4.703177371084E-17       2.1629622967353275E-15   1.2014789776531828E-14   1.1230417359160053E-14   -1.1383532650475536E-15  -1.3157533471412432E-14  -1.9182232959393213E-14
1.2E-5                    2.2817035864315803E-18   3.9381221895455324E-17   5.042596762913775E-17    5.589098379956694E-17    5.137229812802297E-16    7.186586116279072E-15    2.780668477992005E-14    2.1902598490399616E-14   -8.328671657706083E-16   -2.9520658423077676E-14  -3.9633760957604244E-14
1.2499999999999999E-5     2.0587774695109173E-17   -3.7468963837907686E-17  3.59178694702944E-17     -6.993870368234891E-17   1.0929558693021733E-15   1.0901851103817281E-14   5.1776474451594626E-14   2.259647363319805E-14    7.027235371929512E-16    -5.932132765530362E-14   -6.997492662387205E-14
1.3E-5                    2.7061750438354146E-17   -1.3662569827716035E-16  -1.3426094449553844E-17  -1.124582452019148E-16   7.914510468642104E-16    1.1680132342058063E-14   9.275196895421146E-14    3.083196020169311E-14    -1.5821997120164186E-15  -1.1298113037590937E-13  -1.343823891472179E-13
1.35E-5                   -1.0339517683525733E-17  -8.111288777342713E-17   -9.621910219755845E-17   2.9011366757196307E-16   -3.2070463519913346E-16  2.3336552178510925E-14   1.7961844981946148E-13   9.981565617456062E-14    -1.3848367349019135E-14  -2.0937815452909368E-13  -2.6715520892456235E-13
1.4E-5                    -8.962080700953917E-17   1.7870032705810363E-16   -2.4181380441133664E-16  1.2769916885350346E-15   1.6202105827309046E-15   7.312629397665435E-14    3.528218684240863E-13    2.500850992851848E-13    -3.0293576840960886E-14  -3.794826061521967E-13   -4.799340288093875E-13
1.45E-5                   -1.2761537073406804E-16  4.2438324851335954E-16   -1.3495286374554647E-16  2.2563418981766194E-15   1.2446407105152196E-14   1.7750342690674982E-13   6.627688888150626E-13    4.473405564821834E-13    -4.005261912913643E-14   -6.735564232404212E-13   -8.088292213501009E-13
1.4999999999999999E-5     2.3407642186908607E-17   3.674954328998395E-16    1.144187495031255E-15    2.0149949896548354E-15   3.19045676314319E-14     3.165967913056511E-13    1.209647805503978E-12    7.524359474016712E-13    -5.94047208702572E-14    -1.1763347816784008E-12  -1.4245472752576854E-12
1.55E-5                   4.0582246112791244E-16   -2.3019501049015733E-16  3.5356434586721662E-15   1.1994770140960008E-15   5.166292822658953E-14    4.440923494222827E-13    2.172602287578427E-12    1.4096715851244686E-12   -1.243625573387327E-13   -2.0307964882118646E-12  -2.6228092459477704E-12
1.6E-5                    6.635621762954877E-16    -1.455965295452053E-15   3.747984007668897E-15    6.124139016190037E-15    6.974007784682538E-14    5.815791351101435E-13    3.807251747295263E-12    2.5623403196124345E-12   -2.2558320125117594E-13  -3.4932590914206805E-12  -4.745224142879441E-12
1.6499999999999998E-5     6.575592566720147E-17    -2.08578796255953E-15    -1.448190500280114E-15   2.616109323983968E-14    1.04652590894947E-13     9.748660786151781E-13    6.6005061478462954E-12   4.0263280595464514E-12   -3.300897569703599E-13   -6.071060733793887E-12   -8.331545999723639E-12
1.7E-5                    -1.5226780426226048E-15  1.2135461432266694E-15   -5.577919284629327E-15   6.141600092151133E-14    1.9349563620576803E-13   2.0867679151310656E-12   1.1595548706159817E-11   5.92977568693786E-12     -5.559950051750434E-13   -1.064346086511525E-11   -1.4276625286769792E-11
1.75E-5                   -2.2732111018800187E-15  9.311810515416717E-15    8.871499987342753E-15    9.853079687839805E-14    4.012972443665797E-13    4.246154599772886E-12    2.018047766620135E-11    9.66796732800647E-12     -1.195611027893903E-12   -1.8169808740844266E-11  -2.3272296981892757E-11
1.8E-5                    8.2381487914664E-16      1.2998563302303619E-14   5.1345222983064985E-14   1.3661580781458838E-13   8.410853148645249E-13    7.347851814800608E-12    3.2771152942882985E-11   1.7322300203512727E-11   -2.3399868687106306E-12  -2.8815034507485484E-11  -3.4835306566141744E-11
1.85E-5                   7.536005627506045E-15    -6.317086944308175E-16   1.0372273829604037E-13   2.2613137058269392E-13   1.6005672570918311E-12   1.122555151323157E-11    4.763017000947413E-11    2.952706766637599E-11    -3.639379323874363E-12   -4.132540964821241E-11   -4.7399789231493106E-11
1.8999999999999998E-5     1.096648178872201E-14    -2.1285978891421824E-14  1.3725059466386942E-13   4.680748863296079E-13    2.5853175110579305E-12   1.6303408981410607E-11   6.194340979757943E-11    4.4806022892125996E-11   -4.960638394403687E-12   -5.376837491050179E-11   -5.963799871271538E-11
1.95E-5                   3.438550261473015E-15    -4.575715721039632E-15   1.6405239010296238E-13   9.5361104759314E-13      3.662660810667135E-12    2.328594784577336E-11    7.453571851049227E-11    6.193885021283827E-11    -7.345244622483579E-12   -6.499716483455153E-11   -7.101547478148201E-11
1.9999999999999998E-5     -9.635519697932075E-15   8.036793412297122E-14    2.719829850962176E-13    1.7045735227910603E-12   5.3726411517434E-12      3.1948077284364653E-11   8.649706495388764E-11    8.174939027232797E-11    -1.2501772105739355E-11  -7.461842205852607E-11   -8.068330131569424E-11
2.05E-5                   -5.5297218417710416E-15  1.87280439390678E-13     6.002923750041278E-13    2.7258459257723268E-12   9.385546870827788E-12    4.0821968728019015E-11   9.816586599022543E-11    1.0448936564152767E-10   -2.061303481631949E-11   -8.111635559886591E-11   -8.676128127860354E-11
2.1E-5                    3.581387111540873E-14    2.2734798058428445E-13   1.266514588415735E-12    4.231137675508041E-12    1.7251434270123922E-11   4.835659792835595E-11    1.0627709499707608E-10   1.2591476212472648E-10   -2.905002179781045E-11   -8.109526503056256E-11   -8.752256430157406E-11
2.1499999999999997E-5     1.0395153231389591E-13   2.150429977794176E-13    2.303552790949218E-12    6.8883351055574534E-12   2.7756634549772122E-11   5.350122310423504E-11    1.0536111602441742E-10   1.384821592614807E-10    -3.421834893872413E-11   -7.166161267445912E-11   -8.257594887365993E-11
2.2E-5                    1.603736071338127E-13    3.49123309519852E-13     3.702196139736501E-12    1.1652587719747511E-11   3.599814493804982E-11    5.449171095125296E-11    9.171734141067083E-11    1.3697507187934932E-10   -3.476976468125602E-11   -5.318263965108656E-11   -7.187929659241085E-11
2.2499999999999998E-5     1.8177702288960943E-13   8.789592927558755E-13    5.61552149598235E-12     1.8873100824222477E-11   3.662111058683747E-11    4.8101558690239985E-11   6.51089683341809E-11     1.208268886754649E-10    -3.222447362352465E-11   -2.8425753525122383E-11  -5.3862440479207147E-11
2.3E-5                    2.0310796289657473E-13   1.8936369968880475E-12   8.557068219206933E-12    2.7168457114632476E-11   2.8601072250918943E-11   3.1681471770659255E-11   2.6944260957819188E-11   9.029072732635913E-11    -2.8220569577198808E-11  1.1089914008340593E-12   -2.530448438526988E-11
2.35E-5                   3.135814501212659E-13    3.3211834834094075E-12   1.318926617981959E-11    3.33253085192034E-11     1.5821731000842804E-11   6.1966139133828546E-12   -2.2122412069038985E-11  4.302242887893532E-11    -2.1972610696178775E-11  3.712616233572942E-11    1.697163365174508E-11
2.4E-5                    6.111626118501665E-13    5.16401449691445E-12     1.9547001965682294E-11   3.3921801437807495E-11   2.2636106710128742E-12   -2.349761672041506E-11   -8.286170452095155E-11   -2.3564989514074396E-11  -1.1062226407147861E-11  8.285100468805015E-11    7.467424220794164E-11
2.45E-5                   1.161538449577191E-12    7.665670949552489E-12    2.6312852830302747E-11   2.7620935266257708E-11   -1.2013003259275749E-11  -5.188467836672098E-11   -1.5663086202705036E-10  -1.0833573440040287E-10  5.6951270574727716E-12   1.4030600526931183E-10   1.4803070151091714E-10
2.4999999999999998E-5     1.9936220168227826E-12   1.1177077700554449E-11   3.112371397686751E-11    1.6047026592376954E-11   -2.8509830744042953E-11  -7.68197557660491E-11    -2.4407069615712653E-10  -2.073644307925118E-10   2.680610346821742E-11    2.093716362268173E-10    2.3644985312196497E-10
2.55E-5                   3.1385450019745194E-12   1.5835398663042656E-11   3.1995783247732284E-11   2.2883943021113415E-12   -4.512415046408882E-11   -1.0145522765481651E-10  -3.4451129928794435E-10  -3.1848195409643845E-10  4.9379758755130923E-11   2.886624199146666E-10    3.3869976809121134E-10
2.6E-5                    4.7092365721957255E-12   2.12989922398668E-11     2.855381520151895E-11    -1.1680394665071989E-11  -5.664868040890529E-11   -1.3271693609976426E-10  -4.5709763894917176E-10  -4.429430226941289E-10   7.146709262395758E-11    3.766514194496585E-10    4.524315213456927E-10
2.65E-5                   6.968475885410204E-12    2.665116310206756E-11    2.165174728877212E-11    -2.633679834640709E-11   -6.180635315873297E-11   -1.7684229615832187E-10  -5.824757332449351E-10   -5.820291381307961E-10   9.341864487089249E-11    4.718471107118483E-10    5.7399249390116E-10
2.7E-5                    1.025368334579708E-11    3.0515842968658E-11      1.166096081292066E-11    -4.3592595654384056E-11  -6.747521688455363E-11   -2.348068202632755E-10   -7.217979729261025E-10   -7.327866627886653E-10   1.1756287733050578E-10   5.719107873607666E-10    6.993807196619477E-10
2.7499999999999998E-5     1.468058438418884E-11    3.1414570100868626E-11   -2.646088843532016E-12   -6.451978008566199E-11   -8.30526471349578E-11    -3.0132964986159353E-10  -8.724336561571517E-10   -8.876298815429253E-10   1.46527499195728E-10     6.727402930941578E-10    8.25631254469733E-10
2.8E-5                    1.980540865688752E-11    2.8201079843851765E-11   -2.313459090242341E-11   -8.800589218417804E-11   -1.1071752173738338E-10  -3.6821829565336825E-10  -1.025007884363643E-9    -1.0381933932755278E-9   1.8109967184653012E-10   7.687511813871802E-10    9.50611357345154E-10
2.8499999999999998E-5     2.4606706928389432E-11   2.0256777346110576E-11   -5.003010971625601E-11   -1.1142963522209032E-10  -1.4329895196632008E-10  -4.2871337580734534E-10  -1.1661939091578711E-9   -1.179404238077341E-9    2.1901535770607435E-10   8.542117045179304E-10    1.0703305051837067E-9
2.9E-5                    2.791014349527148E-11    7.420157324907913E-12    -8.067899540800109E-11   -1.323981665861088E-10   -1.7210055654256254E-10  -4.791649509215332E-10   -1.2847610102379341E-9   -1.3089398377736094E-9   2.556938030647147E-10    9.241649297884717E-10    1.1760660842638455E-9
2.95E-5                   2.88839748877804E-11     -9.990262102067388E-12   -1.1080530709291712E-10  -1.4990070933458392E-10  -1.9471049904998304E-10  -5.176857061633018E-10   -1.3738634158392432E-9   -1.4216287887696143E-9   2.8635642115329006E-10   9.7399099512076E-10      1.2551005658365578E-9
2.9999999999999997E-5     2.709350315119783E-11    -3.09632784643183E-11    -1.3721876845959352E-10  -1.6438147809967487E-10  -2.1355794271130607E-10  -5.420098007737982E-10   -1.4269846506835717E-9   -1.5043120578051187E-9   3.077244001981316E-10    9.980871761436977E-10    1.2953878130505393E-9
3.05E-5                   2.209660787385778E-11    -5.393803351962395E-11   -1.5947891893055731E-10  -1.7720986762238396E-10  -2.2814657620017465E-10  -5.486443409339194E-10   -1.4325387613514065E-9   -1.5368202964032073E-9   3.181044530795337E-10    9.887384890138555E-10    1.2890052380520717E-9
3.1E-5                    1.3156960503926915E-11   -7.768643807440054E-11   -1.7913222366931214E-10  -1.896140655669211E-10   -2.315506340393015E-10   -5.337854998369236E-10   -1.3732567812923016E-9   -1.4981709128706196E-9   3.164220868343392E-10    9.360442644678758E-10    1.2296373900623647E-9
3.15E-5                   -4.0397555167589207E-13  -1.0223253420653267E-10  -1.9748962220345653E-10  -2.0094285039489283E-10  -2.1587039412675972E-10  -4.946247029645163E-10   -1.2308492929375629E-9   -1.3722992873783936E-9   3.0158304638248265E-10   8.292234515990321E-10    1.10699420001651E-9
3.2E-5                    -1.8427354786653912E-11  -1.2864254006140035E-10  -2.1396634534432659E-10  -2.073781844209171E-10   -1.8021868722550711E-10  -4.290367939592031E-10   -9.916905331666085E-10   -1.1498331013213213E-9   2.7264854986624917E-10   6.586849799150371E-10    9.059637405250345E-10
3.25E-5                   -3.954643795420193E-11   -1.5764414716841168E-10  -2.259972992167573E-10   -2.0289855674173437E-10  -1.320751871872204E-10   -3.3380137211586806E-10  -6.496710302331869E-10   -8.264697309208591E-10   2.2899214947861086E-10   4.1772912933533165E-10   6.126382696617517E-10
3.2999999999999996E-5     -6.185006636579178E-11   -1.8839064377443011E-10  -2.300562089970268E-10   -1.8230124669082368E-10  -8.056976875713631E-11   -2.042337471182098E-10   -2.0517751525216715E-10  -3.993840393390373E-10   1.6959501544251773E-10   1.0347482429602783E-10   2.206905470005342E-10
3.35E-5                   -8.427205045406804E-11   -2.1842210676498063E-10  -2.2290263298915092E-10  -1.4358786634472068E-10  -2.8361265985297892E-11  -3.6636604800312087E-11  3.387814578854644E-10    1.3659505789748035E-10   9.204446911982399E-11    -2.8267379686254704E-10  -2.6809734390666146E-10
3.4E-5                    -1.0760174398165392E-10  -2.444441528632113E-10   -2.025659942460254E-10   -8.765986033286065E-11   3.101331790366541E-11    1.6940985700595056E-10   9.808081120686535E-10    7.896829464420812E-10    -7.175713997030678E-12   -7.352668128550775E-10   -8.479064432538616E-10
3.45E-5                   -1.341236499424979E-10   -2.6301785226969016E-10  -1.687265259397982E-10   -1.6344619021924276E-11  1.0888293390741326E-10   4.1194784635767674E-10   1.72228874210505E-9      1.5666091767373177E-9    -1.305214744575626E-10   -1.246314651225838E-9    -1.5126224637720196E-9
3.5E-5                    -1.658881172023597E-10   -2.7111233713212686E-10  -1.2213278483341608E-10  6.887776202138246E-11    2.1340202499983403E-10   6.885956391298508E-10    2.5635333220304704E-9    2.4657195369622417E-9    -2.769372428383444E-10   -1.8072877970239948E-9   -2.256704354616158E-9
3.5499999999999996E-5     -2.0270071240092432E-10  -2.6694527791733914E-10  -6.321961540414255E-11   1.667303606446827E-10    3.4260217354181423E-10   9.956534472781873E-10    3.4966942541760163E-9    3.472578089921383E-9     -4.4135832087916636E-10  -2.4098124759086963E-9   -3.0730907276193787E-9
3.6E-5                    -2.4123523260474795E-10  -2.506038776993115E-10   9.072015652554561E-12    2.755831046063265E-10    4.834318560254424E-10    1.3255274660371342E-9    4.500118479921021E-9     4.559218602908258E-9     -6.165753416011264E-10   -3.04442684102202E-9     -3.94889553076877E-9
3.65E-5                   -2.7597354738589174E-10  -2.2318340725981103E-10  9.717495208867235E-11    3.932414015705661E-10    6.186435557317667E-10    1.6668622920912328E-9    5.537958751022169E-9     5.68527158153998E-9      -7.957130242779442E-10   -3.698297984796415E-9    -4.861355100206512E-9
3.7E-5                    -3.0144262326829496E-10  -1.8439868625767054E-10  2.0333436541681193E-10   5.169795058873091E-10    7.367858304250404E-10    2.007347072651798E-9     6.564992364078405E-9     6.800919676551809E-9     -9.734176231227345E-10   -4.352739687158406E-9    -5.777308581418847E-9
3.75E-5                   -3.143065554369176E-10   -1.3075767047115265E-10  3.276191855224918E-10    6.436543428985617E-10    8.364134000542514E-10    2.3348044932650384E-9    7.532529211569185E-9     7.852296145222531E-9     -1.1452528534067225E-9   -4.981135221202351E-9    -6.656399194878732E-9
3.7999999999999995E-5     -3.139382410616446E-10   -5.657280195103747E-11   4.669137321760617E-10    7.697071676268465E-10    9.206567043073393E-10    2.6354762134000473E-9    8.390455258090592E-9     8.785985992569354E-9     -1.3059593821892243E-9   -5.548711093438761E-9    -7.454442451783871E-9
3.85E-5                   -3.0114356383572185E-10  4.245193389858313E-11    6.156102254932186E-10    8.9043802087422E-10      9.884473324848894E-10    2.893268551198717E-9     9.084571554542067E-9     9.547691110306986E-9     -1.4476639078797802E-9   -6.015424109356595E-9    -8.124151710690905E-9
3.9E-5                    -2.760028006520692E-10   1.6598489395109646E-10   7.673056251866423E-10    9.984518845594624E-10    1.0317923218742364E-9    3.091482483488379E-9     9.554073153758174E-9     1.0076458994611632E-8    -1.5592643291892349E-9   -6.34065329642718E-9     -8.614231525733421E-9
3.95E-5                   -2.3636821205369416E-10  3.0898806168722064E-10   9.157764228683947E-10    1.0828257224961141E-9    1.0405171093853366E-9    3.2135641286856243E-9    9.73448129605939E-9      1.0302568633760772E-8    -1.6277014785349592E-9   -6.4864272754256525E-9   -8.869569419647448E-9
3.9999999999999996E-5     -1.7801930377770595E-10  4.6481201915549323E-10   1.0542183313965227E-9    1.1308783070281399E-9    1.0073194893963376E-9    3.240913267134569E-9     9.565115859864746E-9     1.015387073631266E-8     -1.6403787737358049E-9   -6.417614004868968E-9    -8.833701623493323E-9
4.0499999999999995E-5     -9.630214993240826E-11   6.287922022447036E-10    1.173917151089125E-9     1.1320039592998684E-9    9.275071516703402E-10    3.1513824763137865E-9    8.994729957605826E-9     9.565655845199771E-9     -1.5869937308701307E-9   -6.100889357375478E-9    -8.452724474813104E-9
4.1E-5                    1.1862728181335454E-11   7.994253249517364E-10    1.264580956588454E-9     1.080454554717139E-9     7.959216234847535E-10    2.9221848256064154E-9    7.981229925056476E-9     8.485929822188671E-9     -1.4599532874487025E-9   -5.505243983421676E-9    -7.679258479150852E-9
4.15E-5                   1.4684244939401458E-10   9.762711568517626E-10    1.3166334794752538E-9    9.74614726629148E-10     6.065882089723588E-10    2.535268152871813E-9     6.488415651218533E-9     6.8747959489339295E-9    -1.2543006300542885E-9   -4.604782360238296E-9    -6.475525232808866E-9
4.2E-5                    3.0656260509481645E-10   1.1561864703400108E-9    1.3229426891461566E-9    8.13611946426615E-10     3.5553530949341385E-10   1.9806936732293604E-9    4.485818147998285E-9     4.703545828101939E-9     -9.68301873658604E-10    -3.3825077446592346E-9   -4.8152579745082E-9
4.2499999999999996E-5     4.877008950592882E-10    1.3305370849832614E-9    1.2776998454636497E-9    5.943779109516985E-10    4.268335346311841E-11    1.2571249085868085E-9    1.954165162354211E-9     1.958014674956152E-9     -6.043465424941048E-10   -1.8334270176736866E-9   -2.6849009020663823E-9
4.2999999999999995E-5     6.866953233771797E-10    1.4851755055812749E-9    1.1736694214304087E-9    3.115791526834948E-10    -3.286647488574796E-10   3.715922567992701E-10    -1.1062866736930388E-9   -1.354613973305593E-9    -1.6889999888060456E-10  3.399822729964146E-11    -8.526682692506315E-11
4.35E-5                   8.997172798986512E-10    1.6031202453679116E-9    1.001380263225276E-9     -3.950927669757363E-11   -7.513261355115047E-10   -6.608964991878015E-10   -4.669035137124918E-9    -5.1989625658510516E-9   3.287536295928723E-10    2.1980741012347185E-9    2.965324172441335E-9
4.4E-5                    1.121671778545963E-9     1.6684314289010177E-9    7.518813372263569E-10    -4.589811660863492E-10   -1.2105600620719984E-9   -1.819233765241775E-9    -8.67841849711186E-9     -9.507090937157064E-9    8.777535697571454E-10    4.624858597707338E-9     6.427058444012147E-9
4.45E-5                   1.3450560341049E-9       1.6694830311558984E-9    4.208536379323513E-10    -9.393584816626397E-10   -1.6812444184438618E-9   -3.07893409314539E-9     -1.3049535632940083E-8   -1.417785789857325E-8    1.4656231431160585E-9    7.268846003107137E-9     1.0236135340588214E-8
4.4999999999999996E-5     1.5595331375277009E-9    1.6003369369802786E-9    1.0680434369767192E-11   -1.4650441764204054E-9   -2.131831843443732E-9    -4.412501601109684E-9    -1.7669106779009903E-8   -1.9080168608727044E-8   2.0769433150053904E-9    1.0073178627920738E-8    1.4305401015243336E-8
4.5499999999999995E-5     1.7524951802165523E-9    1.4596091543879157E-9    -4.706164640204451E-10   -2.0139651322069748E-9   -2.534434132525609E-9    -5.786223271578684E-9    -2.2397075791898957E-8   -2.4058389198849935E-8   2.6917891511704515E-9    1.2969700469554212E-8    1.8527058225743647E-8
4.6E-5                    1.9102724087590914E-9    1.247127098579047E-9     -1.0118656269017773E-9   -2.5602130149676635E-9   -2.872644933354967E-9    -7.156938855278066E-9    -2.707041567730879E-8    -2.8936848763550102E-8   3.2851332058227994E-9    1.5878475367646535E-8    2.2775147714775526E-8
4.65E-5                   2.019381313396274E-9     9.600751992588112E-10    -1.6002275187805801E-9   -3.0764820352024328E-9   -3.1394214837892113E-9   -8.473298549760163E-9    -3.1509461078664267E-8   -3.352153070250904E-8    3.828010001498533E-9     1.8706516867264916E-8    2.690704292506695E-8
4.7E-5                    2.06733402585863E-9      5.914602300897701E-10    -2.220522525228824E-9    -3.53553272260845E-9     -3.326489448659992E-9    -9.681175429569739E-9    -3.5524114731264445E-8   -3.760022262943653E-8    4.2904212653473545E-9    2.134764936602814E-8     3.0764976779093444E-8
4.7499999999999996E-5     2.0429254229491834E-9    1.3298346267557046E-10   -2.8531374502909194E-9   -3.910418972672577E-9    -3.414904919526037E-9    -1.0728157305212661E-8   -3.8916678209743596E-8   -4.0944852605482927E-8   4.6447843878219694E-9    2.3686431704692164E-8    3.4178573837095554E-8
4.8E-5                    1.9363144387080384E-9    -4.186274763145454E-10   -3.4723816649774265E-9   -4.174055692935109E-9    -3.375463050013116E-9    -1.1563654179932502E-8   -4.148191919829909E-8    -4.331926659770816E-8    4.868108569503994E-9     2.5605808200133536E-8    3.6968742860237816E-8
4.85E-5                   1.7392663916601362E-9    -1.055899804941252E-9    -4.046787809573566E-9    -4.299482385891525E-9    -3.1787337267193997E-9   -1.2137203610000157E-8   -4.300962837590969E-8    -4.449232549518692E-8    4.942118790671071E-9     2.699403708348239E-8     3.895339207495589E-8