% Model:              Untitled.mph
% Version:            COMSOL 6.0.0.405
% Date:               Jul 15 2025, 13:59
% Dimension:          1
% Nodes:              401
% Expressions:        11
% Description:        Point graph
% Time (s)                Displacement field, Y component Displacement field, Y component Displacement field, Y component Displacement field, Y component Displacement field, Y component Displacement field, Y component Displacement field, Y component Displacement field, Y component Displacement field, Y component Displacement field, Y component Displacement field, Y component
0                         2.197977175118984E-36    2.319233663538447E-35    7.258365029250925E-34    5.2769949690065636E-33   1.1899753655459972E-31   2.820354902900217E-32    4.2956153570455927E-32   4.438926230273912E-31    1.1705082209862422E-30   -4.051222525550833E-32   -1.2756387597585163E-31
5.0E-7                    4.6140335876231147E-29   -6.463159313629862E-27   -5.857000527680626E-25   -2.843759683598707E-24   -1.9256991728514894E-23  1.572006217505878E-23    -6.55132442742021E-23    -1.631886732548122E-22   2.8986793550273367E-22   7.527578987367609E-24    1.739937774566645E-23
1.0E-6                    -5.026922992762217E-27   5.554273053668451E-26    8.402992372829117E-24    2.8569405351924577E-23   3.535397544325843E-23    -2.9334586979068947E-22  9.356541493776066E-23    -8.74652400876745E-22    -3.294119299309486E-21   -2.0106077711531243E-23  -3.7058523641961923E-23
1.5E-6                    1.4328371712470897E-26   -6.337739153848496E-26   -2.7954696865189355E-24  9.943154894064667E-24    2.3451899601634393E-23   6.571559078957341E-22    2.8437781740499017E-21   9.582367288879318E-21    8.943522510177762E-21    -2.561880409808308E-23   9.762326917752219E-23
2.0E-6                    3.531084834308889E-26    -1.1285310905751225E-24  -5.2796832829754475E-23  -1.7651942575579698E-22  -1.1789478477200237E-21  2.8404219934896543E-21   -1.042691572591512E-20   -9.722723158322503E-21   -4.181886868669866E-21   3.1025350718853628E-22   9.16889122115447E-22
2.4999999999999998E-6     -2.2499507894424693E-25  2.0435640831247893E-24   6.88214818765292E-24     9.833430321136069E-23    5.5559257620027155E-21   -1.8414362352540713E-21  -1.5723218864807382E-20  -6.793866130280718E-20   -4.050623407520664E-21   -5.23614582212491E-22    -6.845899066487337E-21
3.0E-6                    -3.557966845750343E-25   7.574725656824807E-24    -1.462996211156742E-22   -4.530973580956772E-22   -4.682466144984658E-21   -4.343380188976515E-20   8.638649509902095E-20    1.850841844380144E-20    -5.433699070802316E-20   2.0222054211818277E-21   8.746065035255487E-21
3.5E-6                    2.0239002607670876E-24   -1.419913171728521E-23   9.865631260800213E-23    -5.160981974448855E-22   -1.4927517102969688E-20  5.033784705565993E-21    1.365922849286268E-19    5.496163382441474E-19    1.2278485962947754E-19   -4.177039967109971E-21   3.0216907329965645E-20
4.0E-6                    3.3408394324777374E-24   -5.1551366230469116E-23  2.00776037204568E-21     4.827435547846479E-21    5.151627601635338E-21    3.8898958541338236E-19   -4.478777220234842E-19   2.1333286170207601E-19   3.1938675184583757E-19   -1.292952258194685E-20   -4.5404531528190113E-20
4.5E-6                    -1.1393587769043813E-23  4.9337149812413744E-23   1.1733093039602489E-21   4.456502292683962E-21    3.016551640635296E-20    5.634553625700065E-20    -1.0632930283690374E-18  -3.1396808480359803E-18  -1.231535253893266E-18   3.548508573968589E-20    -1.5566158423440405E-19
4.9999999999999996E-6     -2.649439710202034E-23   3.041120957619199E-22    -7.686385747290652E-21   -1.965593032458166E-20   2.2008531266748964E-19   -2.1832856082163314E-18  1.7506836596362126E-18   -2.191906549221096E-18   -4.2713331488291767E-19  5.139796665859081E-20    4.6691971505419076E-20
5.5E-6                    4.112472669563111E-23    -1.8449243950181208E-23  -1.2472233498784443E-20  -3.105092522372028E-20   -1.6805419243972512E-19  -1.0126397097242284E-18  6.136469076765937E-18    1.2990072469153265E-17   6.3263832005906176E-18   -1.6789573035995173E-19  9.7169295368073E-19
6.0E-6                    1.4445805894955041E-22   -1.3890694367543447E-21  1.841033350377316E-20    7.406573246677015E-20    -1.5475982977898444E-18  8.907518661781302E-18    -3.518841505075512E-18   1.5183912991637954E-17   -1.5096572978732348E-19  -2.9028993337255E-19     4.377204368520543E-19
6.5E-6                    -8.392277284383931E-23   -9.395075444857153E-22   6.623046225962862E-20    2.1505505979872284E-19   7.223419362744075E-19    9.463190594870352E-18    -2.356718549638898E-17   -3.4521829155638005E-17  -2.474459825679504E-17   7.596372124676034E-19    -4.83975013223832E-18
7.0E-6                    -5.428273742788829E-22   4.698438212179342E-21    -3.886250276489842E-20   -1.0616506731812197E-19  6.992054519083895E-18    -2.2379598435725107E-17  2.8716725858834067E-19   -6.245003028431092E-17   -9.469377205933873E-19   1.7696271464951276E-18   -3.9728621526939205E-18
7.499999999999999E-6      3.5544382644071456E-23   6.4475293523322745E-21   -3.31156830532054E-19    -9.78848959436146E-19    1.3342207947354378E-18   -4.606276463662374E-17   7.57904085362945E-17     6.418950163930594E-17    9.947188623409906E-17    -3.0189046214379456E-18  1.645477800482115E-17
8.0E-6                    1.4794133631405276E-21   -1.1985932353905934E-20  -5.910563644109269E-20   -7.636995760142795E-19   -1.8708726006072512E-17  2.6547550749898746E-17   6.404673237402213E-17    2.1085580553053596E-16   7.974998776792755E-17    -9.249013728850553E-18   1.5795804772159045E-17
8.5E-6                    2.3117351038577833E-22   -2.6698588063331322E-20  1.3885115015617202E-18   2.5497127431675605E-18   -1.2616686290305518E-17  1.7251373506733597E-16   -1.2047718760058546E-16  3.665723216852029E-17    -2.502459939828545E-16   7.13830006873591E-18     -4.892051459766127E-17
9.0E-6                    -3.0312909921357965E-21  2.4836451491331513E-20   1.4745693777247176E-18   6.41646287499102E-18     5.438941826088323E-17    1.5757551064498402E-16   -2.321703114264064E-16   -2.9241135228281595E-16  -3.9264966888500436E-16  3.252194132398499E-17    -6.173803228054554E-17
9.499999999999999E-6      1.3661152744811286E-21   8.817024692703919E-20    -3.524237165837549E-18   1.4789734457170821E-18   1.3189900992532287E-16   -2.165934060437096E-16   1.0102797526363979E-16   -1.305013310513669E-16   5.843036056429378E-16    -1.6978891972593674E-17  7.444601258262021E-17
9.999999999999999E-6      1.0531244179956363E-20   -3.719550095220663E-20   -7.592864396149038E-18   -1.7468801310188054E-17  6.131892782494306E-17    -5.626400960578221E-16   8.261502880251395E-16    3.8420942232945147E-16   2.0062017375235797E-15   -1.162111376428831E-16   4.808812153385493E-17
1.05E-5                   -5.682389565173743E-21   -2.2354530367776866E-19  3.909663800373277E-18    -2.961039402189037E-17   -1.9241134688407396E-16  8.628860947975578E-17    1.246767714087708E-15    6.918369838032027E-16    1.2141761618386189E-15   -3.6166257264042465E-17  -3.5960333583959527E-16
1.1E-5                    -4.219993494700651E-20   1.4834925794938453E-19   2.4079560868224805E-17   1.0787915308418805E-17   6.923694031743142E-17    1.979758945654219E-15    6.047231167229708E-16    2.1917369807256516E-15   -1.7540845130096153E-15  1.7048045808295953E-16   -5.053711811734644E-16
1.15E-5                   2.156328173133209E-20    8.876350925188612E-19    1.8054758078762975E-17   1.2179176688887792E-16   1.9653549306711054E-15   3.720000085924819E-15    -5.494227105616297E-16   5.966067320727061E-15    -1.2120244572845279E-15  -1.2011034908657816E-16  -2.858314628738669E-16
1.2E-5                    2.8522843072592195E-19   3.8053677336732283E-19   -1.2615580527640844E-17  2.3245893484014047E-16   4.470319260032593E-15    3.892825970825713E-15    3.625064669874226E-16    6.203633557030771E-15    7.32031381745563E-15     -1.0247162213184864E-15  -1.7346109611199157E-15
1.2499999999999999E-5     4.356355939803423E-19    -1.1835149342954504E-18  -1.9144623267993234E-17  1.76015315154405E-16     4.126787018025122E-15    2.990152308513275E-15    6.285107293905854E-15    -2.435804032369648E-15   2.1546985927801323E-14   -1.4908692943744075E-15  -5.970828978801253E-15
1.3E-5                    -1.6806275889908968E-19  5.631299470473688E-19    -2.5206799146771934E-17  -1.9613218074631423E-16  3.5864658922342135E-15   3.266445668193415E-15    1.874878649890345E-14    -4.321981713200542E-16   4.0355677954124116E-14   -1.699611654704669E-15   -1.0828561915966298E-14
1.35E-5                   -9.223563754510217E-19   8.734928515061444E-18    -2.962076081806681E-17   -5.154882353233144E-16   1.8967208709465073E-14   1.1899834075355949E-14   3.880540138118312E-14    5.148424322742812E-14    6.638959879289578E-14    -5.172021920047217E-15   -1.877107363873147E-14
1.4E-5                    1.6278786377164117E-18   2.0148514774194277E-17   3.679565069120235E-16    8.807756258280242E-16    6.439751038589184E-14    4.720354990891027E-14    6.504212411074952E-14    1.4542875623333977E-13   9.539120965723946E-14    -1.5451292073985624E-14  -4.4055994251697323E-14
1.45E-5                   1.045261309003341E-17    3.173495442475088E-17    1.4474022127769302E-15   6.0842674575842636E-15   1.2831197397246067E-13   1.2747698528280611E-13   8.654998963269044E-14    1.8647283936494979E-13   1.4284467430002256E-13   -3.349160619979892E-14   -1.0275312395330415E-13
1.4999999999999999E-5     1.9860558852595248E-17   5.070159061134517E-17    1.8018278338470064E-15   1.361826075553536E-14    2.0001178029839587E-13   2.381212703379032E-13    9.603400825885793E-14    1.1156010575989062E-13   3.1087827764234087E-13   -6.608093116846624E-14   -2.0886803487364544E-13
1.55E-5                   1.897915046818505E-17    1.1618954914580722E-16   -4.665242782374903E-16   1.738865379618911E-14    3.5016152674475284E-13   3.3537527383257253E-13   1.4689890304000715E-13   8.030142935809817E-14    7.519931713055491E-13    -1.378101252932351E-13   -4.074415186632047E-13
1.6E-5                    2.4239683714048412E-17   3.5121034183408753E-16   -1.9316070212096563E-15  1.8901425158045625E-14   7.53385994120452E-13     4.461232280582885E-13    3.9509713334227184E-13   4.2343688610804176E-13   1.4588841088114806E-12   -2.9182402865289E-13     -8.045166879382095E-13
1.6499999999999998E-5     1.133402004049366E-16    9.582329259086984E-16    6.8461978534806794E-15   4.440886925726442E-14    1.5875305537145375E-12   7.81086899652867E-13     9.90687887123125E-13     1.2809061258728682E-12   2.1579799887449945E-12   -5.911620672980575E-13   -1.5432424956761196E-12
1.7E-5                    3.8801828488912634E-16   2.092917999262354E-15    2.7209632127222493E-14   1.362938349785832E-13    2.9808074995213773E-12   1.6529401913687816E-12   1.8216633423615804E-12   2.4192894863375612E-12   2.659737592398611E-12    -1.145113247648899E-12   -2.8052538091627513E-12
1.75E-5                   8.730733337832809E-16    4.0126008414347996E-15   4.1438986733362967E-14   3.1825999994822886E-13   5.20443631117975E-12     3.166646536792478E-12    2.4715609285615006E-12   3.697822814827216E-12    3.4910814022684694E-12   -2.148791191193451E-12   -4.9366889027742606E-12
1.8E-5                    1.5763624604801067E-15   8.035454498977637E-15    3.6367567343795134E-14   5.972483452552625E-13    8.866226153028289E-12    5.066923796798723E-12    2.8530396369061016E-12   5.788526166836171E-12    6.124671235051239E-12    -3.8948104954139155E-12  -8.516157588148633E-12
1.85E-5                   2.9690271186771783E-15   1.7690735489562946E-14   4.3618012040462543E-14   1.0387004334100736E-12   1.4541425212860957E-11   7.188038681291836E-12    4.254567107127593E-12    1.0178044165482938E-11   1.2373435878242973E-11   -6.728882110981967E-12   -1.4002740900392853E-11
1.8999999999999998E-5     6.637682099549088E-15    3.866761385539288E-14    1.288432558087952E-13    1.8327655111403315E-12   2.189291010207728E-11    1.0222060351330717E-11   9.431417380690933E-12    1.8164680969395603E-11   2.3287942263400672E-11   -1.0929774730257766E-11  -2.1055794792687906E-11
1.95E-5                   1.5313822877329235E-14   7.847056625809458E-14    3.2536638257426894E-13   3.2706329426998458E-12   2.9340731308934944E-11   1.5710114257673318E-11   2.0557525643074734E-11   2.9692513221539615E-11   3.8340922469133684E-11   -1.6522242959311642E-11  -2.8295364812241493E-11
1.9999999999999998E-5     3.229973405053772E-14    1.4967213109814824E-13   6.182480595148823E-13    5.708448574137686E-12    3.504455392374819E-11    2.4623757050409804E-11   3.6162707277901544E-11   4.29878597351025E-11     5.545766107407773E-11    -2.3141746615434712E-11  -3.405117370258693E-11
2.05E-5                   6.247136565324063E-14    2.784789755470904E-13    1.0385733841076524E-12   9.55995965363754E-12     3.8206246475127304E-11   3.561674256850997E-11    5.039981038243826E-11    5.5170661908841836E-11   7.180691459109453E-11    -3.0091664624520096E-11  -3.7439127684200636E-11
2.1E-5                    1.1728803602559398E-13   5.135900459733509E-13    1.7508534209707632E-12   1.50791574358014E-11     3.8956135284992354E-11   4.493470481749349E-11    5.6657970971441376E-11   6.343007791003404E-11    8.46757208304969E-11     -3.6488557377122216E-11  -3.849344158421572E-11
2.1499999999999997E-5     2.2193561703833582E-13   9.26423009756901E-13     2.9983576465445944E-12   2.1839282469754553E-11   3.693839192065099E-11    4.852798866904919E-11    5.2905415162884656E-11   6.620983044525314E-11    9.17549962521135E-11     -4.1260272513213364E-11  -3.7217752570108145E-11
2.2E-5                    4.182098881544325E-13    1.5980422675087666E-12   4.956236935622405E-12    2.8541549941601716E-11   3.0679726205832264E-11   4.456183610568312E-11    4.334153181676791E-11    6.370372129428241E-11    9.088742386852239E-11    -4.3184378913955316E-11  -3.292354287891738E-11
2.2499999999999998E-5     7.602539144263886E-13    2.6019015493047653E-12   7.607303192332327E-12    3.380943718978248E-11    1.8758341529160945E-11   3.4049371979112546E-11   3.4092370310356996E-11   5.709307225745079E-11    7.99850237352805E-11     -4.144980033503789E-11   -2.4834959911339137E-11
2.3E-5                    1.3109355722331171E-12   4.00374722044466E-12     1.0636680142597139E-11   3.7219119506698807E-11   1.2004520763590345E-12   1.9239381563578622E-11   2.698476500286929E-11    4.682337564842775E-11    5.7552266151163315E-11   -3.638353714279793E-11   -1.3016830674564886E-11
2.35E-5                   2.1499425750875877E-12   5.874724383509484E-12    1.3389431156902697E-11   3.8961106661233376E-11   -2.0599821896832854E-11  1.4769707283038817E-12   1.7727485188675867E-11   3.1191312258257884E-11   2.342134989128012E-11    -2.8994954536510442E-11  1.942420932205483E-12
2.4E-5                    3.387350348990872E-12    8.245184638051878E-12    1.5108396792019063E-11   3.827280060497832E-11    -4.498728234506918E-11   -1.94675295708249E-11    2.134508480087436E-13    6.544011225840623E-12    -2.1006288786959983E-11  -1.90804661907486E-11    2.026184592388965E-11
2.45E-5                   5.147701517768051E-12    1.0926627025103196E-11   1.54248727972832E-11     3.302132088283998E-11    -7.09122385659278E-11    -4.4132744280436375E-11  -2.7792408215363496E-11  -3.0686924578994545E-11  -7.331181203883889E-11   -4.117178712068286E-12   4.338887363929523E-11
2.4999999999999998E-5     7.48630227881163E-12     1.331098519571933E-11    1.4558612924708318E-11   2.1620893344771032E-11   -9.82891629582734E-11    -7.163255483432292E-11   -6.342664555041467E-11   -8.139408102958008E-11   -1.312217930280248E-10   1.8916986690374703E-11   7.262746866187645E-11
2.55E-5                   1.0255312830402E-11      1.4444396871482288E-11   1.2874563369582917E-11   4.879063417016982E-12    -1.278256655197761E-10   -9.953420822046323E-11   -1.0255698496614417E-10  -1.4274712370047352E-10  -1.9390214137670233E-10  5.045142876757918E-11    1.0759404373915725E-10
2.6E-5                    1.3021229961732198E-11   1.349131612055484E-11    1.0342929115853937E-11   -1.5070801195118626E-11  -1.600252102117266E-10   -1.2585325097696533E-10  -1.4377840492846756E-10  -2.0984599507536386E-10  -2.626392299649628E-10   8.805269179933163E-11    1.465176976788627E-10
2.65E-5                   1.5139552674906235E-11   1.0209305658524102E-11   6.6045477253853644E-12   -3.7572576581643376E-11  -1.9422400341158943E-10  -1.5128662796478505E-10  -1.8814166382007032E-10  -2.787805756285476E-10   -3.401984100279572E-10   1.2973146978389085E-10   1.8798422164196467E-10
2.7E-5                    1.5959504096550454E-11   4.92124447033136E-12     1.3258300850573396E-12   -6.417419900547372E-11   -2.2917398813962677E-10  -1.7925806163744065E-10  -2.357090088736354E-10   -3.482023793201252E-10   -4.2884141161502094E-10  1.7642332338368034E-10   2.318457465903779E-10
2.7499999999999998E-5     1.499410622860411E-11    -1.9384199788423623E-12  -5.9050840400589325E-12  -9.634686366163229E-11   -2.6431542176853716E-10  -2.1334585003719533E-10  -2.838087958946677E-10   -4.1791502314046956E-10  -5.279222741881626E-10   2.2996117018819314E-10   2.7827640043307375E-10
2.8E-5                    1.1941364172273536E-11   -1.0053334601606612E-11  -1.5790709258623075E-11  -1.3340750698932495E-10  -2.991665389441023E-10   -2.5410415067995566E-10  -3.293628485533402E-10   -4.863093567307845E-10   -6.324176196481739E-10   2.8912747540698763E-10   3.2639539319367354E-10
2.8499999999999998E-5     6.626395806577153E-12    -1.8941190000148834E-11  -2.8675472394335482E-11  -1.732308094298395E-10   -3.3134890829293264E-10  -2.97962837896839E-10    -3.7224762530381305E-10  -5.499721311508878E-10   -7.334838423246867E-10   3.4924598588182464E-10   3.740564216059906E-10
2.9E-5                    -1.0141978444246529E-12  -2.7741898869746457E-11  -4.355464136746349E-11   -2.1429124761861544E-10  -3.569155339350719E-10   -3.3931830146481015E-10  -4.152010553363076E-10   -6.062113827446012E-10   -8.211864326666464E-10   4.058276357600518E-10    4.1849095184824503E-10
2.95E-5                   -1.0911393327135701E-11  -3.571924937002366E-11   -5.858304397461257E-11   -2.561291915100576E-10   -3.7334353872934555E-10  -3.740082724307456E-10   -4.598417890112109E-10   -6.550285428122972E-10   -8.878452347282599E-10   4.572050177726876E-10    4.5651810712196423E-10
2.9999999999999997E-5     -2.2856913569692905E-11  -4.3118433064550114E-11  -7.319599722000887E-11   -2.979729310920735E-10   -3.8046649073254537E-10  -4.004818675435E-10      -5.025995639853576E-10   -6.966470600431808E-10   -9.290710145680444E-10   5.028984536586485E-10    4.840664959371553E-10
3.05E-5                   -3.646633039218938E-11   -5.1342193729414E-11     -8.91246920777128E-11    -3.3770100206252274E-10  -3.7692997922565795E-10  -4.1698840241717243E-10  -5.340670624032733E-10   -7.25861074820915E-10    -9.408712866224318E-10   5.404272152759892E-10    4.959144791127314E-10
3.1E-5                    -5.112531333136561E-11   -6.206584892327998E-11   -1.0829604073688938E-10  -3.7248422033634784E-10  -3.5674289767192673E-10  -4.1799032934900714E-10  -5.419640478847485E-10   -7.294189274254247E-10   -9.152873919835822E-10   5.645991593896598E-10    4.863493786467306E-10
3.15E-5                   -6.613702527378555E-11   -7.606069910261698E-11   -1.2970675275872642E-10  -4.000504797175124E-10   -3.111774557339264E-10   -3.9474107024439267E-10  -5.156553862773968E-10   -6.904070588415964E-10   -8.395140710533315E-10   5.692235327214086E-10    4.504294301165542E-10
3.2E-5                    -8.114804839285962E-11   -9.265408155955375E-11   -1.4922220140328927E-10  -4.188236631634866E-10   -2.3431948099379255E-10  -3.4021395190287686E-10  -4.4987840255002656E-10  -5.960574774391025E-10   -7.003091636462239E-10   5.485969818354756E-10    3.8485046428330474E-10
3.25E-5                   -9.640434246095713E-11   -1.0989360101763966E-10  -1.6288066792633854E-10  -4.267867816717446E-10   -1.2597267029268127E-10  -2.529456926792539E-10   -3.4554694242397366E-10  -4.419027431025091E-10   -4.896346442114802E-10   4.977879304849248E-10    2.876462796751665E-10
3.2999999999999996E-5     -1.1229996992969948E-10  -1.2491712640641614E-10  -1.700119863488309E-10   -4.2055235723049134E-10  1.0863572270413277E-11   -1.3555161536287552E-10  -2.0658040626463616E-10  -2.298244798562459E-10   -2.0611881037846765E-10  4.125992024288506E-10    1.5706025877792524E-10
3.35E-5                   -1.2844820427122203E-10  -1.344224903954902E-10   -1.728707390011494E-10   -3.956858706445382E-10   1.743627614964944E-10    9.744845477329575E-12    -3.481591615734917E-11   3.618890550070759E-11    1.481528634778934E-10    2.8959821099303477E-10   -8.998872858620041E-12
3.4E-5                    -1.4320480333463015E-10  -1.3560755979936114E-10  -1.7365239070131517E-10  -3.475861815806279E-10   3.6484923361862584E-10   1.8292232698475163E-10   1.722277590813934E-10    3.5222359293553063E-10   5.711095845632577E-10    1.2599929092477494E-10   -2.1190339256387613E-10
3.45E-5                   -1.5419601081528858E-10  -1.2749813695697749E-10  -1.7219678580009103E-10  -2.718303779639637E-10   5.814098767021698E-10    3.8350915043047574E-10   4.180336963626654E-10    7.142951252023798E-10    1.0607208953364956E-9    -8.024814193888907E-11   -4.505595725992053E-10
3.5E-5                    -1.593703191145071E-10   -1.1161498355017136E-10  -1.6601324034964137E-10  -1.6434130862586745E-10  8.182863840286996E-10    6.072851206989227E-10    7.015037762692144E-10    1.1180936941674367E-9    1.6122112275382477E-9    -3.298275789897495E-10   -7.210620760682892E-10
3.5499999999999996E-5     -1.575918042519071E-10   -9.088058314775814E-11   -1.5153530702110118E-10  -2.235119198189783E-11   1.065337540074081E-9     8.467412362570776E-10    1.0151991440470315E-9    1.5591948123591315E-9    2.2156548104692683E-9    -6.214955328166486E-10   -1.018302321885814E-9
3.6E-5                    -1.482459156603216E-10   -6.712324516386894E-11   -1.2509419426778575E-10  1.5448317868866361E-10   1.311890170429446E-9     1.0949510101818958E-9    1.3489265015258793E-9    2.0319324142733083E-9    2.8559984743173874E-9    -9.521111046722284E-10   -1.337292509701548E-9
3.65E-5                   -1.3027120484261392E-10  -3.919939440165483E-11   -8.350433253662718E-11   3.6457238128207486E-10   1.5495632635439633E-9    1.3480662134099838E-9    1.693705630823114E-9     2.526089352103713E-9     3.5147677140130243E-9    -1.3165927495673024E-9   -1.6717748700119158E-9
3.7E-5                    -1.0170715964528591E-10  -3.5494145980919138E-12  -2.4860589881376856E-11  6.06325700442015E-10     1.7716799735276347E-9    1.6027666552024642E-9    2.041107918756043E-9     3.024003317119758E-9     4.170864731068741E-9     -1.7071849461961961E-9   -2.0110570707070077E-9
3.75E-5                   -6.044980671602985E-11   4.3370155974172824E-11   5.061847569474226E-11    8.787849349871309E-10    1.9709747909438957E-9    1.8507748521407419E-9    2.379122679645195E-9     3.5015298141940135E-9    4.798540759269583E-9     -2.1127359293301472E-9   -2.3387703904432378E-9
3.7999999999999995E-5     -5.4427866122305105E-12  1.0331351742446778E-10   1.4060027049106634E-10   1.179157215539262E-9     2.137801692987052E-9     2.076326991308528E-9     2.6897482818393096E-9    3.932317941674149E-9     5.3637126909091654E-9    -2.5187471554588045E-9   -2.635308674654869E-9
3.85E-5                   6.327549008912237E-11    1.7659314974466638E-10   2.4179129645591437E-10   1.4993121243415747E-9    2.259075795832918E-9     2.259448961633766E-9     2.9507642628214794E-9    4.2908413351686955E-9    5.822517164482689E-9     -2.9075991789783255E-9   -2.8813077511770838E-9
3.9E-5                    1.4582372129077295E-10   2.630767344479328E-10    3.5125959996052974E-10   1.8251878287542617E-9    2.3180831890658176E-9    2.3815844089739043E-9    3.139319658395508E-9     4.551165854668466E-9     6.124889333943525E-9     -3.2583352120511024E-9   -3.0586687286330854E-9
3.95E-5                   2.4310624509641914E-10   3.6164452423163787E-10   4.66754017841762E-10     2.140232262451311E-9     2.2963282563413084E-9    2.4282517614226263E-9    3.2342181124293154E-9    4.68363089878286E-9      6.221521081408903E-9     -3.5469540310683753E-9   -3.149419227015251E-9
3.9999999999999996E-5     3.553911203327995E-10    4.685364012845206E-10    5.860938519370024E-10    2.4295165026820746E-9    2.177270365194279E-9     2.387616941773241E-9     3.216404290539676E-9     4.6539039164756195E-9    6.069642108437758E-9     -3.748205223877609E-9    -3.1354940014365178E-9
4.0499999999999995E-5     4.802379736034259E-10    5.77063492634128E-10     7.067582696833998E-10    2.6801891296579315E-9    1.9494764573537054E-9    2.2482250672838296E-9    3.0687580929778982E-9    4.426273103549618E-9     5.634870367781523E-9     -3.837790115277834E-9    -3.0003414297512043E-9
4.1E-5                    6.12294485298152E-10     6.794961479254713E-10    8.262110706827976E-10    2.877946429286682E-9     1.6073743399660367E-9    1.9988316472635694E-9    2.7759285790627996E-9    3.969447716765762E-9     4.890347994339334E-9     -3.79315165778867E-9     -2.7299459323696284E-9
4.15E-5                   7.451190717884891E-10    7.691365972633477E-10    9.421090107468294E-10    3.003961036933278E-9     1.1504205333214672E-9    1.6301267663484663E-9    2.324650235836912E-9     3.261766505685381E-9     3.8160831576276625E-9    -3.5930832082549783E-9   -2.3119396760465387E-9
4.2E-5                    8.727400724521376E-10    8.408066970144279E-10    1.051380403078641E-9     3.03655887459567E-9      5.818718346695655E-10    1.1363847698352026E-9    1.7051208144452507E-9    2.2935154926978526E-9    2.4001235960798216E-9    -3.217907654884306E-9    -1.7352097866951896E-9
4.2499999999999996E-5     9.894469878491486E-10    8.904226916532472E-10    1.1485213832487531E-9    2.9564375523672385E-9    -9.301185108334063E-11   5.158741144845291E-10    9.133559793122208E-10    1.066136912960148E-9     6.412160238420201E-10    -2.650831975670701E-9    -9.924110607847794E-10
4.2999999999999995E-5     1.0887180118095225E-9    9.149064522424666E-10    1.2245812450973124E-9    2.7497555092368604E-9    -8.686505939956506E-10   -2.2935426009835135E-10  -4.661875086638285E-11   -4.096749726879996E-10   -1.4485298830362143E-9   -1.879693040132732E-9    -8.361293046933581E-11
4.35E-5                   1.162776306012543E-9     9.118731536523437E-10    1.2679303708881674E-9    2.405888834418849E-9     -1.73797081853597E-9     -1.0926606562084628E-9   -1.1618636655854907E-9   -2.1146044305501113E-9   -3.842415156722071E-9    -8.988068788505466E-10   9.824713953903541E-10
4.4E-5                    1.2029742373847234E-9    8.779650729725034E-10    1.2666724586700718E-9    1.9134080456686045E-9    -2.6873886042665688E-9   -2.0601218677722777E-9   -2.4110256520765955E-9   -4.019523497697705E-9    -6.49918685551385E-9     2.88776930514354E-10     2.189665790589527E-9
4.45E-5                   1.200408542420224E-9     8.068654717197168E-10    1.2115996152107427E-9    1.2603430560788767E-9    -3.6918491344903647E-9   -3.107366903646379E-9    -3.765475730232991E-9    -6.083596234836044E-9    -9.362067099848882E-9    1.66936432173484E-9      3.5146213128417648E-9
4.4999999999999996E-5     1.1465103821227196E-9    6.896135856338904E-10    1.0981229598829708E-9    4.3978729905052963E-10   -4.714908928107747E-9    -4.198937911976104E-9    -5.190016030889882E-9    -8.252631941497605E-9    -1.235509623649866E-8    3.21856668437404E-9      4.9249666601978445E-9
4.5499999999999995E-5     1.0336024341761807E-9    5.178875085045917E-10    9.257588355249791E-10    -5.443006966415073E-10   -5.713897798818174E-9    -5.291692059950654E-9    -6.642553337424445E-9    -1.0458150133810349E-8   -1.537901806636549E-8    4.903015714860782E-9     6.378117305772171E-9
4.6E-5                    8.55264734008509E-10     2.8761211684640544E-10   6.951715915754071E-10    -1.6761927038141211E-9   -6.645564316939695E-9    -6.3401586049724806E-9   -8.07338871040238E-9     -1.261813942797926E-8    -1.83115183387831E-8     6.681598359364218E-9     7.823472530932449E-9
4.65E-5                   6.06525178679421E-10     -2.8431692828666476E-14  4.051382010519628E-10    -2.932053447297453E-9    -7.468629202355282E-9    -7.300014539798753E-9    -9.42559495360036E-9     -1.4640521232115785E-8   -2.1013783573987882E-8   8.504538851987826E-9     9.206717056539573E-9
4.7E-5                    2.842006632662443E-10    -3.400161930868569E-10   5.268503725591917E-11    -4.283801966024394E-9    -8.143683290136455E-9    -8.128163505885894E-9    -1.0637048678953194E-8   -1.642858034821278E-8    -2.3340039973147552E-8   1.0311574580404867E-8    1.0472400422955506E-8
4.7499999999999996E-5     -1.1255995556150414E-10  -7.24872121197395E-10    -3.629362356178862E-10   -5.699759796540612E-9    -8.632699644227791E-9    -8.78155742627887E-9     -1.1643203847487446E-8   -1.7885954423178985E-8   -2.5145306892130132E-8   1.2032078561985084E-8    1.1563071780457847E-8
4.8E-5                    -5.81835081486476E-10    -1.1446057972359286E-9   -8.358797127380111E-10   -7.1422210142701085E-9   -8.899436022363942E-9    -9.217488755699038E-9    -1.2379755920229172E-8   -1.8919467486848937E-8   -2.6290060006033613E-8   1.3588239288672929E-8    1.2417528773443371E-8
4.85E-5                   -1.118432459141938E-9    -1.586403146126374E-9    -1.3533951857815093E-9   -8.564604291481795E-9    -8.910675278823708E-9    -9.395366386795951E-9    -1.2785354024803691E-8   -1.9440347990801496E-8   -2.6643935924073234E-8   1.4899421989211992E-8    1.2972133960864383E-8