% Model:              Untitled.mph
% Version:            COMSOL 6.0.0.405
% Date:               Jul 15 2025, 13:59
% Dimension:          1
% Nodes:              401
% Expressions:        11
% Description:        Point graph
% Time (s)                Displacement field, Y component Displacement field, Y component Displacement field, Y component Displacement field, Y component Displacement field, Y component Displacement field, Y component Displacement field, Y component Displacement field, Y component Displacement field, Y component Displacement field, Y component Displacement field, Y component
0                         5.075995982725973E-38    3.168775235125706E-37    3.511138938094487E-35    1.8596782446797767E-34   1.3136691144944366E-32   1.1482866815928227E-31   2.950120308147918E-31    1.1279764120499204E-30   2.5650235025357475E-30   -1.2592196807875774E-33  -4.526577708129273E-33
5.0E-7                    -6.721095701622378E-30   -5.484534218072769E-29   -6.136461051970238E-27   -2.812517970479121E-26   -1.4483296594231144E-24  -2.499842412318061E-24   -2.4245630920514306E-24  -4.800051273574788E-23   -4.752610069765701E-22   1.8103259562101515E-25   5.995829395337651E-25
1.0E-6                    7.162584682683774E-30    8.082799859960207E-29    2.6072151556334834E-26   2.674035356853298E-26    4.42497864963605E-25     -1.2941945687733039E-22  -2.9567251151014706E-22  -4.0022662682722205E-22  -3.0360307624037755E-22  -4.424080593743027E-25   -6.372698063595617E-24
1.5E-6                    -2.138876321191776E-29   6.359070290007073E-28    4.367336452234807E-26    3.392689426479623E-25    3.645206509057035E-23    7.56120978586544E-22     7.122802927191407E-22    2.8230512613488826E-21   6.614341847961435E-21    9.87619166420213E-26     -1.0631775758936911E-23
2.0E-6                    4.6895828273488043E-29   -2.9425870211434105E-27  -5.08246706308121E-25    -1.6063085191864327E-24  -1.476413831032398E-22   -4.46426110798846E-22    -2.2614485408128428E-21  -6.085526928968194E-21   -2.2957849030778046E-21  7.05110269792476E-24     1.1200095028580212E-22
2.4999999999999998E-6     3.5560904514845126E-28   -1.0135411981563923E-27  -7.020826782456273E-27   1.090382234801567E-24    -5.4745474658600364E-24  -7.444503762923886E-22   1.1738998182198438E-22   -2.0366574537719522E-20  1.9097690669165426E-20   -2.3388053478020745E-23  2.58204878335464E-22
3.0E-6                    -1.761783540249841E-27   1.462911939309838E-26    3.9201734071261755E-24   1.7890212790492132E-23   -4.5291758173746576E-23  -2.8141157832929755E-21  2.9766215114161294E-20   -2.4706196673243974E-20  -1.5166210975903035E-19  -3.7775483537302524E-23  -4.447431164933503E-22
3.5E-6                    -2.190221817050365E-27   4.6528062720455705E-27   6.582710122331527E-24    8.511126003323535E-24    1.5400329291491011E-21   -3.327389248649464E-20   1.2062890396857307E-19   4.1449715711247296E-19   2.5645060651237107E-19   1.5532245942452135E-22   -4.723167742682771E-21
4.0E-6                    1.5567190158780085E-26   -1.6689081401323395E-25  -5.534241225678039E-23   -3.145946503555247E-22   4.752889110041369E-21    -4.4291902051529854E-20  -1.951150079485785E-19   4.157405427253056E-19    3.682051614221734E-19    1.1662250296350382E-21   -1.901943382348998E-21
4.5E-6                    3.7667439860138716E-26   4.666023592015443E-25    -9.750404291812337E-23   -4.115323332749917E-22   -2.3795089670525098E-21  4.78964446339146E-19     -1.315445906483824E-18   -2.382869454836407E-18   -1.4336405853260496E-18  -1.4705651270365857E-21  3.6145795892877293E-20
4.9999999999999996E-6     -1.1120788793792057E-25  1.6075789475158049E-24   5.113199712160497E-22    2.851899497716395E-21    -4.061509276835343E-20   1.1344597073744025E-18   -2.0988449039410688E-19  -3.782591812275472E-18   3.9657698572893516E-18   -1.50123984173137E-20    5.650572831747347E-20
5.5E-6                    -4.258696141374919E-25   -6.655200019532391E-24   1.2529992014223228E-21   6.944326525895207E-21    -8.00397732016121E-20    -2.2755918778072505E-18  7.524444851971593E-18    8.629566773204651E-18    1.0997782720506738E-17   1.2624511752725711E-21   -1.4829784868578386E-19
6.0E-6                    3.3407676510379774E-25   -1.5360157659927065E-23  -2.7338470775050762E-21  -1.2576454098156768E-20  1.219858128386649E-19    -9.329204869146121E-18   1.2288404007153198E-17   3.101488024245083E-17    -1.384290576465444E-17   1.2083139426235448E-19   -4.998263017266149E-19
6.5E-6                    3.4281829342331986E-24   5.0599024301419916E-23   -1.1560226559453192E-20  -6.192996108597157E-20   7.689753045022033E-19    7.786999481227167E-19    -1.5467710461382308E-17  1.7189272960302385E-18   -2.647822092403208E-17   1.1525788874691333E-19   1.1329188922826567E-19
7.0E-6                    2.5374014626003916E-24   1.3180749562780806E-22   3.917972169854333E-21    -7.413120361433969E-21   8.311029242979226E-19    4.338787323713974E-17    -6.993811056218464E-17   -1.263620993655939E-16   8.052186858802521E-17    -6.272647108655471E-19   2.485926164867208E-18
7.499999999999999E-6      -1.8838320008561818E-23  -2.4925188328927893E-22  7.051815932073932E-20    3.1749526196773137E-19   -2.4894330333297165E-18  5.494659450084804E-17    -2.977176743569531E-17   -1.2399455556389714E-16  1.5705697269042415E-16   -1.3417190279306896E-18  2.6421396020217958E-18
8.0E-6                    -4.228009149872686E-23   -8.97278710126327E-22    6.518510954580223E-20    4.629028189413912E-19    -8.218127008040446E-18   -8.901737188187879E-17   2.2943767218578217E-16   3.891271201291111E-16    -8.859536731569809E-17   1.6676566851709753E-18   -7.023266231184256E-18
8.5E-6                    5.526056553820456E-23    7.229945771007926E-22    -2.6172892528078575E-19  -7.652873678070525E-19   -1.2646078005319785E-18  -3.213829285761813E-16   4.582853105297922E-16    9.39052300307698E-16     -1.5634060545297022E-16  8.117904069275793E-18    -1.9480827557021695E-17
9.0E-6                    3.166606319970374E-22    4.7112001009571035E-21   -6.228807010672675E-19   -2.9337899592024097E-18  3.1558967025567905E-17   -1.3415231731589357E-16  -3.7803871979541374E-17  -4.849407941348761E-17   9.770915985763648E-16    2.1858212658691458E-18   1.6026960580264332E-18
9.499999999999999E-6      1.1801328809139892E-22   -3.810427095602376E-24   3.300617901267996E-19    -1.161517914240976E-18   4.6383549545067284E-17   9.212978056551782E-16    -1.351766786817129E-15   -2.517676080057159E-15   2.5513938755097776E-15   -2.9761637973577363E-17  7.078652774550909E-17
9.999999999999999E-6      -1.48732502036036E-21    -1.886378490017956E-20   2.9189687142595226E-18   8.86486037873229E-18     -3.636868337914284E-17   1.783785074835541E-15    -1.454151483474317E-15   -1.840230872024893E-15   2.6151017204039645E-15   -4.341311299878144E-17   7.794678507999502E-17
1.05E-5                   -2.445332884137762E-21   -1.2567900458992159E-20  2.426217324341122E-18    1.6384994018721805E-17   -1.511217921088371E-16   -2.9565058285549314E-16  2.603442487194561E-15    6.948388651593391E-15    3.332646172381016E-15    5.04575410885633E-17     -1.4002283921176753E-16
1.1E-5                    4.018737225384713E-21    5.66923388329194E-20     -7.431772289826297E-18   -5.2365893610574735E-18  -5.4662435707416246E-17  -5.4766365953755495E-15  8.818908136707777E-15    1.74606465225152E-14     1.0640819627316385E-14   1.9886006022918047E-16   -4.101949587995573E-16
1.15E-5                   1.581698966500777E-20    7.76691582560372E-20     -1.7362390291760762E-17  -5.640394903262703E-17   2.7336822465054637E-16   -6.073967038176702E-15   6.975676459503607E-15    9.975800103965695E-15    2.5381407653646518E-14   7.999727547862145E-17    -1.0277657519268957E-16
1.2E-5                    1.7950311283137793E-21   -1.1672748852391182E-19  2.9694496003958937E-18   -6.153205972502971E-17   4.617674208508536E-16    7.230320967505245E-15    -8.906379649807908E-15   -2.0513864678870245E-14  4.6240920889288463E-14   -4.87497562711421E-16    8.872400191289777E-16
1.2499999999999999E-5     -6.063949992058757E-20   -2.759532618543305E-19   5.706084361813529E-17    7.145821469960993E-17    4.718232753413607E-16    2.5745298818105965E-14   -1.8832128413971495E-14  -2.600420826620101E-14   8.819969815579981E-14    -8.380484566816294E-16   1.0395680616993813E-15
1.3E-5                    -7.372141839081326E-20   1.6734684186246438E-19   6.006688398712221E-17    2.580354006671055E-16    7.865368278557546E-16    1.8800089011007913E-14   1.55442408904044E-14     6.853157043210888E-14    1.7894903903862996E-13   1.6779882117404793E-16   -1.297065257988279E-15
1.35E-5                   1.4094580360132809E-19   7.816870299336951E-19    -8.477861625818876E-17   1.7936352675528018E-16   8.620293721509103E-16    -2.602451090422603E-14   9.382273029378918E-14    2.4581671764124656E-13   3.342026068640186E-13    2.1086366132474395E-15   -4.3750505474012846E-15
1.4E-5                    4.2384742959592964E-19   4.2118758667537566E-22   -2.5249179291700465E-16  -3.297022344144815E-16   -3.7266285440030666E-16  -5.788161843421653E-14   1.3802463323077064E-13   3.345383754495515E-13    5.909472624528716E-13    1.8797145409610715E-15   -3.6940848429139585E-15
1.45E-5                   4.710035429698071E-20    -1.5132575623384906E-18  -7.387527755573554E-17   -7.558483722693672E-16   1.1287729105931862E-15   -5.457864016093073E-16   7.558026127784542E-14    2.1017678343556315E-13   1.083983306247197E-12    -3.075775599275736E-15   5.716070369590197E-16
1.4999999999999999E-5     -1.1910658336385015E-18  5.197943397326865E-19    5.305203903737521E-16    -1.6292248816270843E-16  1.555117841561978E-14    1.3472566031691958E-13   1.7169863224263918E-15   1.2210193620161551E-13   1.9542728896490116E-12   -9.34989286563571E-15    -6.157664475120705E-16
1.55E-5                   -1.3124024306550692E-18  5.989129251594043E-18    8.167534890285351E-16    1.5525611287301983E-15   4.4580885889386E-14      2.2490725007404102E-13   1.8398034290958774E-13   6.432554894353745E-13    3.054203018286674E-12    -8.586180014614549E-15   -1.6411310015722203E-14
1.6E-5                    2.3212027954161296E-18   4.616348182426539E-18    -1.2474131198940388E-16  2.8931518545192226E-15   7.066835833638513E-14    2.0685830340492106E-13   7.754625210679596E-13    2.0929287325504466E-12   4.000967202841269E-12    9.543205535955047E-16    -4.610838910189153E-14
1.6499999999999998E-5     7.335736095865178E-18    -4.8785328121759624E-18  -1.678336398734305E-15   2.2435693241594518E-15   8.608866398173386E-14    2.501254509475262E-13    1.5482096303688585E-12   4.146683590652676E-12    5.134029993863663E-12    3.4894560452523677E-15   -8.813761467615905E-14
1.7E-5                    5.0985658547169766E-18   8.971928816499432E-18    -1.3924089290341006E-15  7.9057812484208135E-16   1.4223809219305448E-13   6.099005981004852E-13    2.1621708830970517E-12   6.397921331423335E-12    8.65148612305539E-12     -2.645530584631918E-14   -1.5910780044585248E-13
1.75E-5                   -6.421524121715002E-18   7.470956444468334E-17    2.2191264989798278E-15   3.2389054541205953E-15   3.408052779391272E-13    1.2354632616137848E-12   2.8937225458828682E-12   9.465428438018368E-12    1.8037021345109393E-11   -9.811630301800985E-14   -2.9240470235866627E-13
1.8E-5                    -6.700901333521923E-18   1.480859785262747E-16    6.438228516518661E-15    1.4251514242275612E-14   7.584564189659538E-13    1.7167532017031842E-12   4.911719279315465E-12    1.535465104425085E-11    3.516418812575168E-11    -1.9178022047351546E-13  -5.253252520643466E-13
1.85E-5                   3.601047053436893E-17    1.8181174632139785E-16   5.9246420244292745E-15   3.491526437336742E-14    1.43062363440741E-12     1.93004959540105E-12     9.471613366405672E-12    2.6377114526531436E-11   5.757442731611806E-11    -2.9302082620585457E-13  -9.32010077496506E-13
1.8999999999999998E-5     1.2351315654496343E-16   3.611433565807461E-16    -1.3394070612577858E-16  6.698587225636436E-14    2.4746100541818755E-12   2.7741889416043855E-12   1.6895724010304546E-11   4.317046888098602E-11    7.927279636031611E-11    -4.602512468436656E-13   -1.707431602512417E-12
1.95E-5                   2.1862040716385933E-16   1.1029906581427428E-15   -2.6426360932345212E-15  1.244169881293108E-13    4.201280100492372E-12    5.8995871620524936E-12   2.6784676801327323E-11   6.314038719490075E-11    9.483512733549509E-11    -8.56197537732358E-13    -3.1804283431720823E-12
1.9999999999999998E-5     3.313028631777948E-16    2.5785032992751987E-15   1.1946697889364579E-14   2.3852625969489747E-13   6.998043177565298E-12    1.2309104244609718E-11   3.906029095562038E-11    8.093451878184041E-11    1.0266421366726533E-10   -1.688408268760687E-12   -5.6282493557009724E-12
2.05E-5                   6.39536477958202E-16     4.671831270373586E-15    4.6571430005726744E-14   4.48893430828014E-13     1.103293768709715E-11    2.1220472264001413E-11   5.363129594989092E-11    9.162875373225615E-11    1.0418298367670262E-10   -3.1013239423260437E-12  -8.993591727400393E-12
2.1E-5                    1.4919975411911552E-15   8.538910818231377E-15    8.576792721922818E-14    8.022419426839158E-13    1.6066406267381288E-11   3.060401318556195E-11    6.834684369066198E-11    9.428922744676902E-11    1.004544905907943E-10    -5.130978975802211E-12   -1.2831450591594964E-11
2.1499999999999997E-5     3.3294666478984693E-15   1.831558287569817E-14    1.143242383295089E-13    1.3920377509684602E-12   2.1505443554373346E-11   3.896905476961892E-11    7.856510868959429E-11    9.15371488079266E-11     9.005055755414939E-11    -7.757916540770655E-12   -1.6635247792392265E-11
2.2E-5                    6.8784020220493734E-15   3.942553049468696E-14    1.5541093343688868E-13   2.4164318253034524E-12   2.6542038937179126E-11   4.6377098493164885E-11   8.062014350357515E-11    8.44732218880471E-11     6.972390316059521E-11    -1.094690427171671E-11   -2.0162236658847154E-11
2.2499999999999998E-5     1.375292579667133E-14    7.487095185856707E-14    2.861852702458742E-13    4.15871225564984E-12     3.023187217010979E-11    5.336636924107338E-11    7.531978256424499E-11    6.895497271224781E-11    3.6495082868368334E-11   -1.4559094910710684E-11  -2.3225123196759703E-11
2.3E-5                    2.6853109248791576E-14   1.2901284453494788E-13   5.987255944911982E-13    6.824900442927841E-12    3.158409007764271E-11    5.88567753971962E-11     6.569415239580224E-11    3.886514788802244E-11    -1.0643905869076613E-11  -1.821235324162734E-11   -2.5122960482693613E-11
2.35E-5                   5.029680862589727E-14    2.2265539880672379E-13   1.1426401426053835E-12   1.0330489152018307E-11   2.973751268569555E-11    5.949073652490065E-11    5.084414414786654E-11    -7.028884759771562E-12   -7.031445087536535E-11   -2.1297309942159423E-11  -2.462846923807273E-11
2.4E-5                    9.080906512643465E-14    4.0100311809726184E-13   1.9248808627032577E-12   1.4240274708284858E-11   2.4161265476663116E-11   5.150589674528622E-11    2.473305602364056E-11    -6.355407696543313E-11   -1.3995084119792559E-10  -2.321213555745704E-11   -2.0917454039882517E-11
2.45E-5                   1.625220270024918E-13    7.11228134277659E-13     2.9633980822867865E-12   1.7953332789289935E-11   1.4849549591968504E-11   3.3399354122311505E-11   -1.7061414793199014E-11  -1.2521581368452653E-10  -2.1807434020581E-10     -2.3624899764173486E-11  -1.438579476123965E-11
2.4999999999999998E-5     2.90873685347952E-13     1.1675157667126118E-12   4.281828857480749E-12    2.0970865290563037E-11   2.44170644123227E-12     6.612858803110977E-12    -7.145797985555553E-11   -1.9227502232189153E-10  -3.0593908875606456E-10  -2.2532566921688405E-11  -6.058362326786397E-12
2.55E-5                   5.067192641225492E-13    1.7607870678509346E-12   5.7899504359014705E-12   2.297969277196251E-11    -1.2145176121287196E-11  -2.6246684200981826E-11  -1.314033752453274E-10   -2.696238165769724E-10   -4.069926090755414E-10   -2.0049462378509083E-11  3.95287241396519E-12
2.6E-5                    8.339617918015184E-13    2.519681092720748E-12    7.1992250509577566E-12   2.3683240907045384E-11   -2.881870508410197E-11   -6.33481293323536E-11    -1.941707824623575E-10   -3.604280661802751E-10   -5.242613607496075E-10   -1.5981429424053414E-11  1.699824746496974E-11
2.65E-5                   1.2926973838065338E-12   3.5167170940149015E-12   8.16169356969487E-12     2.2621731667180287E-11   -4.9144580069807186E-11  -1.0395830776187171E-10  -2.631715485399093E-10   -4.619734147189294E-10   -6.57184500285759E-10    -9.371687564034882E-12   3.4605102855676694E-11
2.7E-5                    1.9233262202084423E-12   4.721245507592612E-12    8.543357839151827E-12    1.9282536205486612E-11   -7.528456506926388E-11   -1.4814095445470817E-10  -3.4172282936934967E-10  -5.676062492119747E-10   -7.996613435361052E-10   1.5007133404252498E-12   5.688993296539333E-11
2.7499999999999998E-5     2.782022648703296E-12    5.814752183819828E-12    8.508067922945649E-12    1.3465183199813235E-11   -1.0738686249322253E-10  -1.9713067572200452E-10  -4.2797330751829855E-10  -6.719342071110194E-10   -9.406713781392417E-10   1.8190592919531357E-11   8.25193656958693E-11
2.8E-5                    3.853836849705868E-12    6.255389577935454E-12    8.294180536022319E-12    5.44459269880143E-12     -1.4235759018268377E-10  -2.5310625149105345E-10  -5.167106711716612E-10   -7.735917058315314E-10   -1.0677197461604164E-9   4.067515065066546E-11    1.0992869290226656E-10
2.8499999999999998E-5     4.945873472546066E-12    5.673350621950768E-12    7.95832140307363E-12     -4.469110939113241E-12   -1.759512020172431E-10   -3.1681450600718005E-10  -6.03644816689652E-10    -8.72728085991426E-10    -1.171207266570969E-9    6.699658712441878E-11    1.3805849147539117E-10
2.9E-5                    5.731113359085482E-12    4.230442595995442E-12    7.32941401875174E-12     -1.6703606421668237E-11  -2.060564921877975E-10   -3.8504273231627307E-10  -6.862838701866596E-10   -9.65905163382966E-10    -1.2461251577136553E-9   9.485551664996453E-11    1.6601828608735947E-10
2.95E-5                   5.9890049360270745E-12   2.486635263154942E-12    6.023974908841598E-12    -3.2670502000187377E-11  -2.3345875411356826E-10  -4.513707582453232E-10   -7.617058431995773E-10   -1.043640492493104E-9    -1.2888488318985908E-9   1.2369914600450755E-10   1.9272510680303745E-10
2.9999999999999997E-5     5.794081993016604E-12    8.440633357713169E-13    3.358594527611495E-12    -5.3973849981495125E-11  -2.5951393429566974E-10  -5.095788648042509E-10   -8.244216686065791E-10   -1.0924779601549687E-9   -1.2912602875887104E-9   1.547741771293999E-10    2.1716348837285316E-10
3.05E-5                   5.357482978640974E-12    -8.281587201586016E-13   -1.5371188347853222E-12  -8.114046325426107E-11   -2.8357361028096067E-10  -5.555227222990949E-10   -8.656334204735858E-10   -1.0986008689024379E-9   -1.2378343325079656E-9   1.8885718966146912E-10   2.3851072394982045E-10
3.1E-5                    4.631951222165323E-12    -2.9983875804948573E-12  -9.101720130135362E-12   -1.1299665035382E-10     -3.025044784192514E-10   -5.859068688401517E-10   -8.743216178710414E-10   -1.0498672538821143E-9   -1.1093380045802442E-9   2.243319045499872E-10    2.5553872062836637E-10
3.15E-5                   3.17366402590928E-12     -6.033784216385418E-12   -1.8758930534591418E-11  -1.4721642219030037E-10  -3.1204850511942325E-10  -5.967911118423668E-10   -8.405106249503527E-10   -9.36538053591488E-10    -8.905426352565936E-10   2.578541145361555E-10    2.6610612228179406E-10
3.2E-5                    5.05209447178597E-13     -1.0070027520365676E-11  -2.9327269145978984E-11  -1.815333034399643E-10   -3.085447224899247E-10   -5.839431236255337E-10   -7.584840747211293E-10   -7.519086187417059E-10   -5.752761038741112E-10   2.8652188598235885E-10   2.6761488461386714E-10
3.25E-5                   -3.4340153754851306E-12  -1.51791102747925E-11    -4.0257250856598574E-11  -2.1464239107871199E-10  -2.8984646567387226E-10  -5.43480017537351E-10    -6.261799349588087E-10   -4.921353123754124E-10   -1.6473781762074796E-10  3.088082687488528E-10    2.577462417149834E-10
3.2999999999999996E-5     -8.3226825929407E-12     -2.137610210869613E-11   -5.2183313705956273E-11  -2.460844029061385E-10   -2.5490888190012623E-10  -4.711749488951834E-10   -4.409888247058699E-10   -1.546067904236863E-10   3.385452431004132E-10    3.234760653037403E-10    2.342687314103801E-10
3.35E-5                   -1.3911540758817163E-11  -2.8379047305201224E-11  -6.590504940155228E-11   -2.7514739802830094E-10  -2.0246660431240627E-10  -3.61706336789773E-10    -1.9698448150963448E-10  2.6324061818352713E-10   9.348907847931829E-10    3.281687642648287E-10    1.9435116152698795E-10
3.4E-5                    -2.0258871109229414E-11  -3.5596838172635116E-11  -8.100672269278215E-11   -2.9976309419934934E-10  -1.3006432308052635E-10  -2.0942120575383074E-10  1.1300052678111249E-10   7.624971206361253E-10    1.6254320175819887E-9    3.1925399143217963E-10   1.3502272916189052E-10
3.45E-5                   -2.7442878835053554E-11  -4.2570879995056477E-11  -9.59212772690069E-11    -3.166386488076421E-10   -3.428478958382342E-11   -9.795130042793287E-12   4.927652468972805E-10    1.3399009421034398E-9    2.4052131730036575E-9    2.927549925599857E-10    5.486433304812244E-11
3.5E-5                    -3.52221739999855E-11    -4.9327991753007957E-11  -1.0933631886642784E-10  -3.2259796969747157E-10  8.812649212718296E-11    2.3962732803020723E-10   9.400382935053232E-10    1.986758158402077E-9     3.2574436824364565E-9    2.453339314642815E-10    -4.52804539683417E-11
3.5499999999999996E-5     -4.318552461564168E-11   -5.604247651558787E-11   -1.211019354169564E-10   -3.154543470978961E-10   2.387781853232553E-10    5.38172546191344E-10     1.4472089560940605E-9    2.690357950208995E-9     4.154237789852565E-9     1.7466794875228893E-10   -1.6399707074398163E-10
3.6E-5                    -5.115952380934641E-11   -6.230984857707482E-11   -1.3161337958785668E-10  -2.931814566942682E-10   4.1604034240386617E-10   8.803123922301152E-10    2.003520128452913E-9     3.4347779608907213E-9    5.062769976198552E-9     7.919834302515821E-11    -3.0139671042085263E-10
3.65E-5                   -5.917718379240649E-11   -6.697815146881572E-11   -1.4061252158115098E-10  -2.525979709960477E-10   6.141468159562231E-10    1.2550780862886436E-9    2.595647399237678E-9     4.198581549374436E-9     5.949944456896833E-9     -4.224618773295794E-11   -4.584697658107641E-10
3.7E-5                    -6.693363686949721E-11   -6.889472679659885E-11   -1.4674331545680262E-10  -1.8974698723366474E-10  8.242156606737787E-10    1.6484830887191472E-9    3.2053485384974128E-9    4.951688167876054E-9     6.78050214902608E-9      -1.9028817191023462E-10  -6.338964369585885E-10
3.75E-5                   -7.353223852925704E-11   -6.779393423477776E-11   -1.4799646898587776E-10  -1.0186333136249166E-10  1.0369508144626794E-9    2.047262342912238E-9     3.806738089135154E-9     5.6559595552184896E-9    7.511401981041455E-9     -3.643009212587288E-10   -8.219442521786659E-10
3.7999999999999995E-5     -7.807183888352965E-11   -6.429352186777268E-11   -1.4240159742133443E-10  1.1497646443741512E-11   1.2448198762668033E-9    2.439856717018441E-9     4.367678419731252E-9     6.269814813671741E-9     8.089773114310296E-9     -5.619906196370492E-10   -1.0136906835554297E-9
3.85E-5                   -8.037937885432736E-11   -5.890483718077707E-11   -1.2856104938679449E-10  1.4944479937798518E-10   1.4417608850420637E-9    2.8132895527460347E-9    4.855552298142746E-9     6.751957350866602E-9     8.457416865607329E-9     -7.796544104403856E-10   -1.1996672925078764E-9
3.9E-5                    -8.070251371338718E-11   -5.1029451576548975E-11  -1.0582062638878046E-10  3.112795443194478E-10    1.6206448130598236E-9    3.1493990915685985E-9    5.241364473978828E-9     7.060752032236065E-9     8.557585009548236E-9     -1.0123225483609706E-9   -1.3709747756493404E-9
3.95E-5                   -7.843404535985276E-11   -3.898101499597297E-11   -7.382408238158385E-11   4.966381508606058E-10    1.770403798040316E-9     3.424643279003277E-9     5.497179297818073E-9     7.151968518053777E-9     8.338417084845153E-9     -1.2531347857286139E-9   -1.518655763572992E-9
3.9999999999999996E-5     -7.14632741629003E-11    -2.1080872286032576E-11  -3.167528155640727E-11   7.044478474668704E-10    1.8751182069969623E-9    3.613257104875479E-9     5.590383007761431E-9     6.979641834690947E-9     7.752553483508528E-9     -1.4927205309276378E-9   -1.6329223664107417E-9
4.0499999999999995E-5     -5.7308519283813156E-11  3.20603795511908E-12     2.236112554770634E-11    9.319421132526597E-10    1.916620858807514E-9     3.6896369365046115E-9    5.482634792072726E-9     6.5005695218331385E-9    6.757037028429079E-9     -1.7195803221664515E-9   -1.7027514014898645E-9
4.1E-5                    -3.500664073049043E-11   3.321343818706314E-11    9.001269029810578E-11    1.1739420076274554E-9    1.8796987568555398E-9    3.6277400670877765E-9    5.135626459605795E-9     5.679287350997168E-9     5.3167241086178814E-9    -1.9210032577981783E-9   -1.7155355510105549E-9
4.15E-5                   -5.596561526949885E-12   6.812089656187828E-11    1.7166851423366236E-10   1.422076137725587E-9     1.7558337590462803E-9    3.400512940701684E-9     4.518341630379233E-9     4.491353750786997E-9     3.4102216549007357E-9    -2.083439329081412E-9    -1.6575782452988532E-9
4.2E-5                    2.939855977609278E-11    1.0795401337772732E-10   2.658028804579646E-10    1.664608880823718E-9     1.5417497756629678E-9    2.983425370918605E-9     3.6106104748209203E-9    2.9250102835934815E-9    1.0349834519876879E-9    -2.1924506054695784E-9   -1.516404343319971E-9
4.2499999999999996E-5     6.971572599329577E-11    1.5345683154586328E-10   3.695280698746372E-10    1.8877524587315115E-9    1.23427480695843E-9      2.3609837156003346E-9    2.402800812498425E-9     9.817371162418242E-10    -1.7904910435243988E-9   -2.233050111511768E-9    -1.2836080355906565E-9
4.2999999999999995E-5     1.1640252352213871E-10   2.050157956627686E-10    4.795458224800869E-10    2.0775814067612534E-9    8.275343642797536E-10    1.5304431019448186E-9    8.943694225585652E-10    -1.323645394022482E-9    -5.026792369674017E-9    -2.190272118392221E-9    -9.556364204038565E-10
4.35E-5                   1.703888175727263E-10    2.617210207164382E-10    5.926624869960049E-10    2.2205124067333475E-9    3.160491872955386E-10    4.994048049128574E-10    -9.062022439288672E-10   -3.962147847494971E-9    -8.614312663407937E-9    -2.0494205683464904E-9   -5.321825243518644E-10
4.4E-5                    2.3134471491961677E-10   3.2119014832643474E-10   7.056583444012221E-10    2.3020197688640104E-9    -2.9953829652788493E-10  -7.193318029978209E-10   -2.9786718332857038E-9   -6.888677288091941E-9    -1.2473097664240162E-8   -1.7966573589432636E-9   -1.4755008412290508E-11
4.45E-5                   2.977760051158046E-10    3.798587547627979E-10    8.147638682668533E-10    2.3057474904278335E-9    -1.0099626169810916E-9   -2.1096798416350087E-9   -5.286408497884181E-9    -1.004016133232117E-8    -1.650118092583324E-8    -1.420873836251002E-9    5.92611861894514E-10
4.4999999999999996E-5     3.676230464411576E-10    4.3342855154646324E-10   9.151127188655748E-10    2.214814464629765E-9     -1.799244176319282E-9    -3.648969287775417E-9    -7.773481674063256E-9    -1.3334558893618697E-8   -2.0572153757835232E-8   -9.158489345145547E-10   1.2814662746064936E-9
4.5499999999999995E-5     4.3836380311243554E-10   4.77726649373544E-10     1.000578881189863E-9     2.014260861435978E-9     -2.6469694170335267E-9   -5.302696163218718E-9    -1.0366198378248062E-8   -1.667028033086385E-8    -2.453474549566195E-8    -2.806579834066115E-10   2.037806959710794E-9
4.6E-5                    5.06722815804532E-10     5.099685061981935E-10    1.0642706470284534E-9    1.6923223065609674E-9    -3.5279144997285415E-9   -7.021668497950911E-9    -1.2977330416752817E-8   -1.9926463006823103E-8   -2.82174410285249E-8     4.814596132182059E-10    2.841996276703208E-9
4.65E-5                   5.687290431864678E-10    5.294065875550531E-10    1.0994456366974003E-9    1.2402692211055277E-9    -4.410847949356716E-9    -8.743281122258591E-9    -1.550921793557886E-8    -2.2966432425927732E-8   -3.143789473131233E-8    1.3631184271258137E-9    3.6688099005379716E-9
4.7E-5                    6.202755218589635E-10    5.363240083789884E-10    1.1001110704233742E-9    6.526592194429769E-10    -5.259575376386478E-9    -1.0395632560887596E-8   -1.7855133424987002E-8   -2.5645121870003837E-8   -3.401307954630463E-8    2.3504063870379843E-9    4.487498413381454E-9
4.7499999999999996E-5     6.575721562521108E-10    5.2991561396973E-10      1.0607713221716067E-9    -7.113918916340566E-11   -6.035437100362974E-9    -1.19017960553562E-8     -1.9901539623139154E-8   -2.7817065179977462E-8   -3.5766338712932934E-8   3.420338102973248E-9     5.262640435972074E-9
4.8E-5                    6.76996668538845E-10     5.069179437906893E-10    9.756801311401105E-10    -9.254976209198781E-10   -6.697983142088487E-9    -1.3182227422514521E-8   -2.153263674168568E-8    -2.9340940632449457E-8   -3.653141424749637E-8    4.5409866432206525E-9    5.955990669636945E-9
4.85E-5                   6.745509358313686E-10    4.620897932501997E-10    8.386195242804537E-10    -1.8982070557797137E-9   -7.203681635209589E-9    -1.415557230414037E-8    -2.263579269609766E-8    -3.008124133605535E-8    -3.615638964358683E-8    5.674007775355999E-9     6.528431185457446E-9