% Model:              Untitled.mph
% Version:            COMSOL 6.0.0.405
% Date:               Jul 16 2025, 21:31
% Dimension:          1
% Nodes:              401
% Expressions:        11
% Description:        Point graph
% Time (s)                Displacement field, Y component Displacement field, Y component Displacement field, Y component Displacement field, Y component Displacement field, Y component Displacement field, Y component Displacement field, Y component Displacement field, Y component Displacement field, Y component Displacement field, Y component Displacement field, Y component
0                         -1.5439245391852813E-32  1.3841270165140221E-33   1.2152562627897444E-32   6.035507188157647E-32    1.596355618217644E-31    8.488629213019964E-32    7.321800301371716E-32    8.528457010074923E-32    2.3762796764335688E-33   -1.1428419021869916E-32  1.598414931393062E-33
5.0E-7                    -1.9749829470654746E-23  6.1524689206502E-25      -7.36275344350257E-24    -1.786259193348891E-23   -3.360774440202584E-23   7.6839902888451175E-25   -7.224235661636081E-24   -7.989377982082592E-25   -1.6142940561352561E-24  1.7200288056483727E-24   -2.770736443500513E-25
1.0E-6                    1.1288105995021686E-22   -8.71009340336239E-24    -2.1646961734388706E-23  2.121002086653206E-23    5.0506566369847394E-23   -1.595037144367965E-23   2.421640800478669E-23    -3.1117346678279986E-23  6.753139624400415E-24    -5.46184380830303E-25    9.652874548479219E-25
1.5E-6                    -9.130102593870275E-24   1.5554850210617544E-23   1.7310986628211692E-22   4.873594388057504E-22    1.3560004852764363E-21   -2.8410960299669987E-22  1.0377205994446913E-23   2.596666777324845E-22    -1.986443569714287E-23   6.894745756431503E-24    -2.5822388137020942E-24
2.0E-6                    -6.773695199457565E-22   8.649688272547025E-23    8.470673628841677E-23    -9.036733113269808E-22   -2.2022782869389606E-21  7.340534279552204E-23    -3.5088090827864077E-22  -9.22737368295084E-22    1.1062279964640632E-22   2.4038104626408149E-23   4.836225423783331E-24
2.4999999999999998E-6     -2.2737927597418095E-22  -2.471807582368391E-22   -6.685217297765947E-22   -2.4838063215288537E-22  -2.0218812906031507E-21  2.2730408286831934E-21   5.337089703149068E-22    3.3919776297045873E-22   -2.123475127612794E-22   -2.5068093665303525E-22  8.769519994529437E-24
3.0E-6                    3.5957906934800736E-21   -5.733265620338724E-22   8.303757445526051E-22    -3.452684762258838E-21   8.94103875518948E-21     -1.952148186431751E-21   -3.2730505353578794E-21  8.238526604925997E-22    -8.82656775610374E-22    5.010903539104304E-22    -5.402865620417586E-23
3.5E-6                    2.6518046122765297E-21   2.7353348649702775E-21   -5.738885861459054E-22   1.604797132625381E-21    2.6129899663709053E-20   -2.7012638952025943E-21  5.286442512609739E-21    1.4103059558609237E-20   4.1089269322367056E-21   1.2574289299929032E-21   1.3102453627050636E-22
4.0E-6                    -1.4949654545034344E-20  3.7621504982805364E-21   -3.2188411190190027E-20  4.3582651210251585E-20   -4.7978182199390926E-20  -2.5935510775788126E-20  1.3490726417779727E-20   8.072792090535748E-21    -2.4660024925092454E-22  -2.6110079972881175E-21  -1.8260372088368583E-22
4.5E-6                    -2.088403888105198E-20   -2.3818160291931315E-20  1.7765030898062508E-20   -1.3299810025297356E-20  -2.3232269273404498E-19  3.0513150554237106E-20   -9.75830716885839E-21    -1.2329068362142835E-19  -2.8541164221984864E-20  -7.908831127833776E-21   -8.751480084275954E-22
4.9999999999999996E-6     5.444301177694951E-20    -2.934561033801127E-20   3.494511796213303E-19    -2.569489476708175E-19   1.7311035177498624E-20   3.4943747616005836E-19   -3.60898833721017E-21    -8.593939231407653E-20   2.2954331653127706E-20   8.880650104413823E-21    3.7358435535514636E-21
5.5E-6                    9.634716026661482E-20    1.7215966917382644E-19   1.0202980885256496E-19   -9.75741200875944E-20    6.249123948631506E-19    7.778808818394474E-20    -5.887251531759564E-20   6.340245595983213E-19    1.4755829509410684E-19   3.453313835922144E-20    4.767816775371169E-21
6.0E-6                    -2.285554832293471E-19   2.86989369406901E-19     -2.1283828258677586E-18  1.239176539085146E-18    3.2239004501356582E-19   -8.986222921426974E-19   1.4972998308269493E-19   1.0306943722080534E-18   -9.12671476135328E-20    -5.136991451224167E-20   -2.9905311478875007E-20
6.5E-6                    -3.812197571730788E-19   -8.582532151441665E-19   -2.2802503706803686E-18  2.071253363250566E-18    1.0844522590860619E-18   9.608531005900779E-19    8.662052464677561E-19    -1.7301272717623485E-18  -5.725180248087031E-19   -1.7498853719311609E-19  -3.483369315124036E-20
7.0E-6                    8.982581000673767E-19    -2.1019253298361764E-18  8.357024432914892E-18    -3.019185512019468E-18   7.40130558812617E-18     6.2354751091532586E-18   -1.1361877474647204E-18  -5.58874229796078E-18    1.2188367755799126E-19   1.5781904536749067E-19   1.5983947058245708E-19
7.499999999999999E-6      1.3067766774295347E-18   2.941095309292835E-18    1.77998603608231E-17     -1.2002860388040235E-17  1.0397903831299145E-17   1.1129790974146491E-17   -5.174682804276171E-18   5.077645381266989E-18    1.655952387423533E-18    9.442907289971045E-19    2.369291607897158E-19
8.0E-6                    -3.871857194392061E-18   1.2497438463136363E-17   -1.5173693449843466E-17  1.6001792144129886E-18   -1.6012333943950512E-17  1.98756134024455E-17     5.6763147321637476E-18   3.407512916900289E-17    2.5119603434669715E-19   7.320719600625892E-19    -5.94947647155879E-19
8.5E-6                    -7.705744322661175E-18   -4.0497983633975023E-19  -7.551962118279987E-17   5.116395893483522E-17    -6.506031129113721E-17   2.713998307511939E-17    3.1689225674447676E-17   1.86508596571055E-17     -2.7079114405531522E-18  -2.1584747756229715E-18  -1.1558306482197214E-18
9.0E-6                    4.8768840553405715E-18   -4.5221612807719574E-17  -1.5339770734773937E-17  4.6268898296805276E-17   -2.4430541506911802E-17  2.2839466117572748E-17   1.376832536665983E-17    -8.73199656354416E-17    4.2699187415825125E-18   -5.410627111811097E-18   1.9239180718750884E-18
9.499999999999999E-6      1.7400039239817682E-17   -3.2048523622781596E-17  2.3252328830820454E-16   -1.1782740118433784E-16  2.593233128691955E-16    1.113801438171912E-16    -6.921460122992315E-17   -6.946426378795027E-17   1.848091796097878E-17    1.05187236740787E-18     5.420223889525699E-18
9.999999999999999E-6      -1.5765406433914606E-17  1.4201144816315202E-16   3.088583245633327E-16    -2.0734833159639204E-16  6.721741452175412E-16    4.771198522665516E-16    -4.6274221752154644E-17  3.5738598419978646E-16   6.7591981902494524E-18   2.269399079726542E-17    -3.3201108992577633E-18
1.05E-5                   -9.102005757967039E-17   2.998182753415657E-16    -2.271370956218667E-16   2.740416150003122E-16    6.834980215529978E-16    1.0816695793460463E-15   2.8162067168921483E-16   7.588021316945879E-16    -1.5978348005134118E-17  3.330094981734825E-17    -1.8507836412992896E-17
1.1E-5                    -1.6511820613898487E-16  3.1316949042903454E-17   -8.035888676625E-16      1.0344657655758921E-15   8.056141258519981E-17    1.8957288337765236E-15   7.413733852707864E-16    3.424561925492988E-16    8.627493773927906E-17    1.6096842083727606E-18   2.6846970008532174E-18
1.15E-5                   -2.6160020179911904E-16  -4.719381109248106E-16   1.8710038064168678E-16   5.575693021253179E-16    5.0299474170473063E-17   3.653342284949132E-15    8.979616171673265E-16    1.3672405008469644E-16   3.333338430501329E-16    -1.224684270592804E-17   6.575489127076306E-17
1.2E-5                    -4.1238662897331617E-16  1.9499553457090513E-16   3.1189754714869216E-15   -1.4226253320854201E-15  2.45093001667634E-15     7.418029578972811E-15    8.570954479773789E-16    2.451930842941539E-15    3.5820589223480854E-16   1.0576364259471885E-16   5.782422452931569E-17
1.2499999999999999E-5     -7.62303248331052E-16    3.2668274073913387E-15   5.362534507257286E-15    -9.773455249628604E-16   7.308014908006108E-15    1.4046641802566416E-14   2.028187583420926E-15    5.869982124308236E-15    1.705896276197163E-16    2.971402416579946E-16    -8.763401300659645E-17
1.3E-5                    -2.3540136695473775E-15  7.356629736504952E-15    4.330392423589518E-15    6.468481997232683E-15    1.3487593536891128E-14   2.6897261089894195E-14   7.446330072356571E-15    7.490393043017415E-15    1.3653672655382483E-15   4.645625077791825E-16    -1.066596300054047E-16
1.35E-5                   -7.0821993822288964E-15  9.712597672843982E-15    4.002361936624082E-15    1.703006513314402E-14    2.5331890272258256E-14   5.263138848473487E-14    2.058837774741939E-14    1.7274106156628028E-14   5.502844624660416E-15    1.1149359778844844E-15   3.434598800316426E-16
1.4E-5                    -1.5223312305501166E-14  1.35620642831808E-14     1.664320206371102E-14    1.9620631718130014E-14   5.5857933653164146E-14   9.489863393741288E-14    4.127797267762104E-14    5.369169544989795E-14    1.0398920154836357E-14   3.084488455083551E-15    9.214844127836406E-16
1.45E-5                   -2.5076981466751778E-14  3.4222219026713206E-14   5.4206333196424706E-14   1.6115876702664087E-14   1.1417882233459163E-13   1.6572043650121107E-13   6.751903715925225E-14    1.0321439821656887E-13   1.2867366884458426E-14   5.815236172494523E-15    7.897290867882782E-16
1.4999999999999999E-5     -4.171073485416096E-14   9.326763216270073E-14    1.180924195332691E-13    3.503831867168401E-14    1.9122642373545008E-13   3.357166868734325E-13    1.211165055241351E-13    1.22321705210826E-13     1.8993584865886428E-14   7.716976908364605E-15    4.1248873524809124E-16
1.55E-5                   -8.854137839428771E-14   2.0561938132297754E-13   2.0675232564567905E-13   1.1009828323346952E-13   2.8486238722742917E-13   7.364366991491716E-13    2.778471237903607E-13    1.586029875501085E-13    4.5814563915102046E-14   1.1228031181233073E-14   2.341609246445377E-15
1.6E-5                    -2.0261349762971442E-13  3.8451013795604655E-13   3.4852361890616844E-13   2.530444402555726E-13    4.635566185892514E-13    1.3848472191155618E-12   6.264404395563613E-13    4.312106725321364E-13    1.1129249427582364E-13   2.6573222302063882E-14   8.153209495688818E-15
1.6499999999999998E-5     -4.1168914045758564E-13  6.816980595288844E-13    6.355616581829587E-13    4.775376021903222E-13    8.755466469521069E-13    1.9886002322205488E-12   1.1607086279817553E-12   1.0983473343262146E-12   2.3861663566503045E-13   6.747351643055472E-14    1.4830214126203726E-14
1.7E-5                    -7.244738646246155E-13   1.2442260233387075E-12   1.2204967396573636E-12   8.486606016049375E-13    1.64569161994967E-12     2.2265889072102837E-12   1.8369939517360692E-12   1.9009592375836797E-12   4.705653183983322E-13    1.4584128631624956E-13   1.8772479781455893E-14
1.75E-5                   -1.1642517833061644E-12  2.3488028980351277E-12   2.2742652951336313E-12   1.470543831297474E-12    2.8314719431723536E-12   2.591294509834847E-12    3.0016151992460438E-12   2.396625313937057E-12    8.488606173814274E-13    2.7506052012502483E-13   2.842417568137085E-14
1.8E-5                    -1.8488907943046186E-12  4.39038582276074E-12     3.972828894073997E-12    2.436237941251337E-12    4.669348484166664E-12    4.821847797936935E-12    5.803833118401981E-12    2.9405529638163296E-12   1.4177465164118758E-12   4.763065333713679E-13    7.043132182209956E-14
1.85E-5                   -3.114524824345203E-12   7.800138756870687E-12    6.5899484384449235E-12   3.9058630345154615E-12   7.883019539810448E-12    1.083549269336288E-11    1.1719860048815467E-11   5.1992555708762386E-12   2.417808226913201E-12    7.975716001255089E-13    1.717389239773417E-13
1.8999999999999998E-5     -5.613145963652055E-12   1.283246670675889E-11    1.0611622793974678E-11   6.3864714067935095E-12   1.3396120758363572E-11   2.076246984239612E-11    2.1040216271537692E-11   1.0914958649957225E-11   4.5529991669449685E-12   1.3906882044256459E-12   3.3219989636703364E-13
1.95E-5                   -1.0106792785375983E-11  1.9224116787162113E-11   1.654922098307155E-11    1.0966601706438531E-11   2.137792128128343E-11    3.224571491858281E-11    3.175561489832001E-11    1.9782657364988974E-11   8.770911160702888E-12    2.617627323676684E-12    5.456002123793455E-13
1.9999999999999998E-5     -1.6730788772561908E-11  2.5971182444023023E-11   2.4255128121184626E-11   1.8954000628099383E-11   3.0699688472747985E-11   4.2045615752406065E-11   4.053156165134454E-11    2.905363706306573E-11    1.532477261973664E-11    4.983192934746625E-12    9.027552447532644E-13
2.05E-5                   -2.428019996685779E-11   3.15949042470384E-11     3.2249486178047595E-11   3.048440840554507E-11    3.967676108461185E-11    4.823920488941923E-11    4.5280385382058304E-11   3.58355718749712E-11     2.2987219795424816E-11   8.750343697376986E-12    1.6887104910693615E-12
2.1E-5                    -3.0726129062734374E-11  3.487443253764184E-11    3.8004168312654555E-11   4.272665297640585E-11    4.711959021186515E-11    5.0640695944482617E-11   4.658270093331346E-11    3.952933986120032E-11    2.954470322117549E-11    1.3537445101733654E-11   3.3107467367187157E-12
2.1499999999999997E-5     -3.49990673734248E-11    3.5399175346752566E-11   3.923690946759814E-11    4.980840051146677E-11    5.194562171181261E-11    4.942622381177105E-11    4.6143430538067234E-11   4.128609313128453E-11    3.326326609168154E-11    1.8434291544817276E-11   6.041709677279036E-12
2.2E-5                    -3.789566400082276E-11   3.333935875881469E-11    3.4908868193259303E-11   4.6189777391271776E-11   5.174710676774612E-11    4.399316195928179E-11    4.3932680087284544E-11   4.1152033987525114E-11   3.371908580934246E-11    2.259543004733951E-11    9.803870308544374E-12
2.2499999999999998E-5     -4.0408175689346175E-11  2.873261474217682E-11    2.501164177954676E-11    3.1594029172885236E-11   4.29672617267591E-11     3.3252694716702485E-11   3.730107710688392E-11    3.6817290592023945E-11   3.124090103369489E-11    2.5525301240170773E-11   1.4187470303521384E-11
2.3E-5                    -4.1386661173234765E-11  2.11752145311801E-11     1.0109561031953357E-11   1.2329954533916735E-11   2.3778266760674714E-11   1.652436563535464E-11    2.2993443437082323E-11   2.587312718695852E-11    2.601937256728161E-11    2.665224345628596E-11    1.859614040348858E-11
2.35E-5                   -3.7923672705437065E-11  1.0167881509791255E-11   -8.218953232535401E-12   -3.743518931741674E-12   -3.2612250327013623E-12  -6.1772023892393784E-12  -2.3207899280196073E-13  8.683501266604644E-12    1.8038741344494297E-11   2.499601793866773E-11    2.2323630340099162E-11
2.4E-5                    -2.808564920778295E-11   -4.583664670112718E-12   -2.709643985732107E-11   -1.4480475709666583E-11  -3.253236051338038E-11   -3.4451916063017484E-11  -3.0792068983396595E-11  -1.1949717464074071E-11  7.502434947624263E-12    1.9826632468609603E-11   2.464021059198576E-11
2.45E-5                   -1.2166661353740561E-11  -2.338556216400408E-11   -4.39457910835151E-11    -2.559477011156343E-11   -6.013129407519513E-11   -6.768163617921806E-11   -6.540835372372195E-11   -3.3880217788775935E-11  -5.186606543221193E-12   1.1691391190305914E-11   2.5043828829105447E-11
2.4999999999999998E-5     8.80975834990775E-12     -4.676407913869093E-11   -5.894491983148629E-11   -4.523997164828094E-11   -8.719395925676437E-11   -1.0494163673942549E-10  -1.0106019886301392E-10  -5.7573895943227623E-11  -1.9902627385334283E-11  2.297382069141995E-12    2.3455582510385484E-11
2.55E-5                   3.4451747151242196E-11   -7.510887158578311E-11   -7.532038824170341E-11   -7.61367929986663E-11    -1.1815361381603235E-10  -1.4532222655005502E-10  -1.3693374949210112E-10  -8.494916234156147E-11   -3.702376215356712E-11   -6.903138905578048E-12   2.000151886925577E-11
2.6E-5                    6.45428479908207E-11     -1.081865521596024E-10   -9.674702950777075E-11   -1.1256904443858628E-10  -1.5596693597524664E-10  -1.88846320063944E-10    -1.7531974707346138E-10  -1.1716284668977142E-10  -5.7129978728795655E-11  -1.5853706096325514E-11  1.4559575501594778E-11
2.65E-5                   9.875563981725843E-11    -1.4515847528132777E-10  -1.244287205261191E-10   -1.4495965885927944E-10  -1.9944835113516793E-10  -2.3678825312606223E-10  -2.1999742848134033E-10  -1.5399678776768725E-10  -8.055673809097315E-11   -2.5693528561130775E-11  6.653380994986057E-12
2.7E-5                    1.3764122384633002E-10   -1.847950784756449E-10   -1.5637141366178198E-10  -1.6800257245558417E-10  -2.447455090066993E-10   -2.9007958237492765E-10  -2.7250454764482804E-10  -1.9473893824146468E-10  -1.0730943629787255E-10  -3.7985520163573145E-11  -4.198339542205608E-12
2.7499999999999998E-5     1.8268325748476488E-10   -2.2536964055940182E-10  -1.8901466360934414E-10  -1.8502843490230652E-10  -2.881576601022834E-10   -3.4674902278238034E-10  -3.296660703410958E-10   -2.3873286150842623E-10  -1.3749060222672486E-10  -5.4439788892643404E-11  -1.8185696676092666E-11
2.8E-5                    2.342030144342478E-10    -2.646761292916922E-10   -2.1979011597867693E-10  -2.044871518709009E-10   -3.272730842911225E-10   -4.0139966285413476E-10  -3.85159938615942E-10    -2.8489728321704783E-10  -1.7170620545390737E-10  -7.681744329169041E-11   -3.5249072993976945E-11
2.8499999999999998E-5     2.895684012836892E-10    -3.00679821022239E-10    -2.485138954052262E-10   -2.3195785530600728E-10  -3.6082859572820135E-10  -4.479867093032292E-10   -4.3336360762372697E-10  -3.311420528528236E-10   -2.1049897523881917E-10  -1.0618897826129389E-10  -5.516342098849114E-11
2.9E-5                    3.439092366564028E-10    -3.320348548913256E-10   -2.758679687667909E-10   -2.653900998816034E-10   -3.886132435533018E-10   -4.829534085436189E-10   -4.712223730418779E-10   -3.7448342295958695E-10  -2.527749778167634E-10   -1.4189442066255666E-10  -7.746676290814818E-11
2.95E-5                   3.921655490551943E-10    -3.575673330131241E-10   -2.9993363027191237E-10  -2.9712735350078295E-10  -4.103860313995183E-10   -5.048778322220551E-10   -4.968432108689565E-10   -4.1144487119423804E-10  -2.9485001945341007E-10  -1.8133634950463906E-10  -1.0153199284082096E-10
2.9999999999999997E-5     4.305526423791835E-10    -3.7543213757049075E-10  -3.1475000034035367E-10  -3.1874361417701335E-10  -4.2298567870357124E-10  -5.111130860716113E-10   -5.073846621239464E-10   -4.380154741392727E-10   -3.3162210749517487E-10  -2.208490011853276E-10   -1.2698741626526175E-10
3.05E-5                   4.572967478023028E-10    -3.8313513091256835E-10  -3.1335997883385965E-10  -3.234370085845654E-10   -4.187160081558165E-10   -4.958389584086082E-10   -4.984436757993644E-10   -4.4946829022577397E-10  -3.589332757337554E-10   -2.567649851321938E-10   -1.5406688383968638E-10
3.1E-5                    4.725673328663117E-10    -3.7797762749027225E-10  -2.9249406815924725E-10  -3.0616851381040813E-10  -3.8850729348181073E-10  -4.5204593674120965E-10  -4.644861068092515E-10   -4.4098255782132056E-10  -3.7464077087062773E-10  -2.8599659370446375E-10  -1.8328184197467E-10
3.15E-5                   4.76600040882428E-10     -3.567231467958127E-10   -2.538982774462451E-10   -2.648244533024561E-10   -3.27371133523073E-10    -3.7492879679514615E-10  -3.994550265793684E-10   -4.089313985572494E-10   -3.775998642728012E-10   -3.0633920980306923E-10  -2.144248089948493E-10
3.2E-5                    4.666090241917679E-10    -3.1489018695173527E-10  -2.012495839703124E-10   -2.0203491391167728E-10  -2.358276078699949E-10   -2.627585670502184E-10   -2.9800309175854997E-10  -3.513658664527307E-10   -3.6619909940587614E-10  -3.168515467678203E-10   -2.456924297718113E-10
3.25E-5                   4.3554476929858944E-10   -2.472689275972444E-10   -1.3618535754681886E-10  -1.2377177534666992E-10  -1.161001147353353E-10   -1.148681381026252E-10   -1.5748353782486621E-10  -2.669491936491315E-10   -3.378626763142792E-10   -3.17955143065495E-10    -2.738046732223899E-10
3.2999999999999996E-5     3.7447654912472723E-10   -1.4995419864384708E-10  -5.691711048086905E-11   -3.415056240236958E-11   3.125422547366656E-11    7.016372176556636E-11    2.0849778005610287E-11   -1.5359922645689905E-10  -2.890670119460831E-10   -3.1045817398154273E-10  -2.9516150990729445E-10
3.35E-5                   2.76390912767259E-10     -2.2273034773080972E-11  4.026644042202748E-11    6.84220821100215E-11     2.0634314073804436E-10   2.937314619140794E-10    2.3303072120370353E-10   -8.44851508404543E-12    -2.152836772668565E-10   -2.93472537849311E-10    -3.0704628843788477E-10
3.4E-5                    1.3806223076393665E-10   1.3308069669146063E-10   1.5839667245036974E-10   1.8916694156946362E-10   4.0770678281852773E-10   5.547186060474497E-10    4.753785683390448E-10    1.709147138109924E-10    -1.1174658866182322E-10  -2.6271951357058673E-10  -3.077882554866336E-10
3.45E-5                   -4.040745108572319E-11   3.118226640101678E-10    2.9779187859027937E-10   3.309242161897259E-10    6.330469603595327E-10    8.480870195896856E-10    7.466914250660405E-10    3.8496190799326134E-10   2.4236302983510904E-11   -2.1121536214923098E-10  -2.958447516431322E-10
3.5E-5                    -2.5645652999105157E-10  5.103068526774233E-10    4.5523375605708297E-10   4.90328578269188E-10     8.81130690170314E-10     1.1659579176791126E-9    1.0472233027283633E-9    6.309694285173336E-10    1.911519977004671E-10    -1.3250183237678868E-10  -2.688332192766635E-10
3.5499999999999996E-5     -5.055630442928137E-10   7.263134104414479E-10    6.242425503233585E-10    6.593647742054938E-10    1.1503056965974689E-9    1.4996436773081773E-9    1.374604144418893E-9     9.023703255022428E-10    3.8403815389264086E-10   -2.3900575945287016E-11  -2.235314746749372E-10
3.6E-5                    -7.822724245685503E-10   9.575910189213606E-10    7.963169046414884E-10    8.300919803717146E-10    1.4340401261884627E-9    1.839889239688296E-9     1.7198621823952914E-9    1.1898961250623241E-9    5.97898331945225E-10     1.1305397235862775E-10   -1.568979855529225E-10
3.65E-5                   -1.0816708680234494E-9   1.1992799174862162E-9    9.631366640453678E-10    9.981226152189847E-10    1.718780400488663E-9     2.174832710829727E-9     2.0670166970620397E-9    1.4847179020267726E-9    8.300268701912375E-10    2.750073403627298E-10    -6.71678332617215E-11
3.7E-5                    -1.3994098396461422E-9   1.442401101077314E-9     1.1188541373887212E-9    1.1617235484117914E-9    1.9867720471811848E-9    2.488355146069731E-9     2.3963631595824957E-9    1.7806002290973266E-9    1.0784474956271742E-9    4.59201532325255E-10     4.610031795039649E-11
3.75E-5                   -1.7292891049102354E-9   1.6746532526903266E-9    1.2603198511852981E-9    1.3163429112972107E-9    2.220205796799025E-9     2.7611996655031806E-9    2.6880866661910126E-9    2.0713379241775217E-9    1.3383853963112153E-9    6.635829577565401E-10    1.831483379478219E-10
3.7999999999999995E-5     -2.0603537564295138E-9   1.882697095622645E-9     1.3840031698768165E-9    1.448586858371956E-9     2.401903854030919E-9     2.9734858941131047E-9    2.923296991325841E-9     2.3446398815507603E-9    1.600898931289102E-9     8.851290952431659E-10    3.449163462643991E-10
3.85E-5                   -2.3763792957714744E-9   2.0539477441374877E-9    1.4818797973180925E-9    1.5365719807588093E-9    2.5130151378239227E-9    3.105324085586334E-9     3.082988257654794E-9     2.5790917936218086E-9    1.8544491617112743E-9    1.1185747255489186E-9    5.320251311253451E-10
3.9E-5                    -2.6580440612541427E-9   2.176664523228253E-9     1.5406792616546378E-9    1.5595221284340476E-9    2.5326474604036097E-9    3.1352510273237094E-9    3.1473109623727524E-9    2.7488660605799786E-9    2.086209995700708E-9     1.3565079087555319E-9    7.420347905732149E-10
3.95E-5                   -2.8853442465202075E-9   2.238925611070256E-9     1.546108090664876E-9     1.5092277880396817E-9    2.442184839031093E-9     3.0399117165284143E-9    3.096350277976245E-9     2.83220888650915E-9      2.281111540536057E-9     1.5897050217815547E-9    9.67473624290231E-10
3.9999999999999996E-5     -3.038318233131412E-9    2.2280729959202413E-9    1.4884347731424372E-9    1.39125764823385E-9      2.2308149205329732E-9    2.7972755602337527E-9    2.9118235465322106E-9    2.8147904571240886E-9    2.4208793208045732E-9    1.8064593656010633E-9    1.1969652051233913E-9
4.0499999999999995E-5     -3.0967604548319153E-9   2.1314724687650168E-9    1.3642186604974442E-9    1.2133104329232138E-9    1.896145639872747E-9     2.3912977517913708E-9    2.578660416571256E-9     2.684737970236587E-9     2.485947970843586E-9     1.991756453874601E-9     1.4188495291811502E-9
4.1E-5                    -3.0405958507722256E-9   1.937922048648192E-9     1.1732354375540302E-9    9.725749854194172E-10    1.4383907711758583E-9    1.8144024183368288E-9    2.085758300976527E-9     2.4263306428950666E-9    2.4591479625027393E-9    2.12853518653071E-9      1.6240838908137426E-9
4.15E-5                   -2.851128232377727E-9    1.6386405777280144E-9    9.150881692477609E-10    6.557138742809972E-10    8.538345397306523E-10    1.0668982432902798E-9    1.4257911341596233E-9    2.021443545294535E-9     2.327639222704831E-9     2.201371541107581E-9     1.8058458467036396E-9
4.2E-5                    -2.5121911679698773E-9   1.2278757992903367E-9    5.900827295573706E-10    2.514692856986448E-10    1.3512706714878534E-10   1.5508778659486586E-10   5.950694413501014E-10    1.4587433550880315E-9    2.0821789801732728E-9    2.199483573478303E-9     1.956480612530188E-9
4.2499999999999996E-5     -2.010963772488269E-9    7.03955205939173E-10     2.0326416516379145E-10   -2.368881665704205E-10   -7.202311951066767E-10   -9.102968158493606E-10   -4.0482174975113107E-10  7.41039056946778E-10     1.71610764680473E-9      2.1157441563602923E-9    2.064821090595454E-9
4.2999999999999995E-5     -1.3392590795606695E-9   7.066170983477531E-11    -2.3403232077071547E-10  -7.902241801879305E-10   -1.7001245295456645E-9   -2.1145443670222832E-9   -1.5632245986711314E-9   -1.1716798460368532E-10  1.2255599959978933E-9    1.942655961250859E-9     2.1161699017400043E-9
4.35E-5                   -4.95665200608188E-10    -6.623546658774455E-10   -7.081086502080766E-10   -1.3823082311156153E-9   -2.775399721784084E-9    -3.4373580423049617E-9   -2.856727795845883E-9    -1.0987628505439911E-9   6.095957510259645E-10    1.669917837366424E-9     2.0945491891036504E-9
4.4E-5                    5.124016915746575E-10    -1.4806047480688086E-9   -1.2083493242841032E-9   -1.989400983449727E-9    -3.9064615273439915E-9   -4.848921693667599E-9    -4.248666390880021E-9    -2.1892985042367064E-9   -1.306718324359736E-10   1.2863500518243008E-9    1.985157498935657E-9
4.45E-5                   1.66827125531762E-9      -2.365807488306361E-9    -1.7276086860021885E-9   -2.5930265177899793E-9   -5.05204811952686E-9     -6.3060259593867475E-9   -5.692446037470431E-9    -3.373122084354563E-9    -9.91902673129787E-10    7.839732452361908E-10    1.7756388269730538E-9
4.4999999999999996E-5     2.9478164064980992E-9    -3.2954668190555966E-9   -2.256185547103861E-9    -3.1752993313632955E-9   -6.172216869810792E-9    -7.752131424065087E-9    -7.136308782981782E-9    -4.625624745327538E-9    -1.9651303062398017E-9   1.6046461719675287E-10   1.4564105796654648E-9
4.5499999999999995E-5     4.3219656833646604E-9    -4.241539797619062E-9    -2.7752932536858072E-9   -3.7118432249915554E-9   -7.224613168090413E-9    -9.122309688988833E-9    -8.526531598939651E-9    -5.9101788688041236E-9   -3.0310454301392868E-9   -5.806919948549986E-10   1.0210234386261112E-9
4.6E-5                    5.757005148665571E-9     -5.170093705951772E-9    -3.257234401344429E-9    -4.1686889147490845E-9   -8.159997550502181E-9    -1.0349185940259908E-8   -9.807692063895042E-9    -7.181449766601271E-9    -4.158762775009705E-9    -1.4303818514594205E-9   4.669923531802976E-10
4.65E-5                   7.211355932490752E-9     -6.042842961805464E-9    -3.6732491267788296E-9   -4.506505488640344E-9    -8.922347235720748E-9    -1.1365343467349747E-8   -1.0920664603850077E-8   -8.389437789759528E-9    -5.309908334470439E-9    -2.373347430114709E-9    -2.0332302222746144E-10
4.7E-5                    8.631580591934712E-9     -6.819772445500397E-9    -4.002345842923297E-9    -4.689841481877959E-9    -9.45289655554538E-9     -1.2102409005677132E-8   -1.1800601788317682E-8   -9.479657226715225E-9    -6.444104241860634E-9    -3.3878377089288943E-9   -9.824938809874277E-10
4.7499999999999996E-5     9.952403591749626E-9     -7.461702944005189E-9    -4.233239483827245E-9    -4.6947854987723055E-9   -9.694364697313567E-9    -1.249143319747286E-8    -1.2377932744342704E-8   -1.0391551819542255E-8   -7.52054738098902E-9     -4.445962965281388E-9    -1.8585635027485554E-9
4.8E-5                    1.1102342031397108E-8    -7.932273990526973E-9    -4.358515742124263E-9    -4.509838083733757E-9    -9.594246997543977E-9    -1.246782855712508E-8    -1.2584058765163354E-8   -1.1060323419682475E-8   -8.495288034784454E-9    -5.514142506602591E-9    -2.8154410497128727E-9
4.85E-5                   1.2011279320784318E-8    -8.199099312117165E-9    -4.368178579588367E-9    -4.131188315461262E-9    -9.109133115125295E-9    -1.197893367401234E-8    -1.2359807504709299E-8   -1.1423381289741385E-8   -9.3189835504432E-9      -6.553330363892707E-9    -3.83198720534845E-9