% Model:              Untitled.mph
% Version:            COMSOL 6.0.0.405
% Date:               Jul 16 2025, 12:44
% Dimension:          1
% Nodes:              401
% Expressions:        11
% Description:        Point graph
% Time (s)                Displacement field, Y component Displacement field, Y component Displacement field, Y component Displacement field, Y component Displacement field, Y component Displacement field, Y component Displacement field, Y component Displacement field, Y component Displacement field, Y component Displacement field, Y component Displacement field, Y component
0                         2.5282565389198222E-36   -7.185218700397059E-36   1.6717298172069808E-33   6.550639517872842E-32    9.424329252885313E-32    5.293506312813344E-32    -3.007508087505138E-38   -3.559039370949981E-34   -4.972076480003468E-34   -4.188139845074254E-31   -6.423731368487223E-31
5.0E-7                    1.9292289118946186E-28   -5.6749675487699E-27     1.66864506709078E-24     1.5789390988407056E-23   1.3859341386143923E-24   -8.055447689139104E-24   3.417557048594375E-30    -2.7607118342741654E-25  5.458106346948035E-26    -1.4434244831084114E-22  1.1949843018767961E-22
1.0E-6                    -3.484985178705426E-27   4.5454945859715056E-26   -1.1573665029384828E-23  -1.684253575271232E-22   2.0383341957964746E-23   1.1580347986016608E-23   -6.250220776357269E-30   1.2604625375767465E-24   -1.4120789405757433E-25  1.6461491845361199E-21   -6.806297714531774E-22
1.5E-6                    1.0517210682830585E-26   -5.410439408798758E-26   2.1171385157942187E-23   5.993229813093452E-22    -6.527572716204735E-23   6.368784279266368E-23    1.0456239633660553E-29   -2.7064356509401098E-24  1.5935921051059518E-25   -3.937148091362661E-21   -4.24093680968037E-21
2.0E-6                    -2.2613456203099938E-26  9.528998204204677E-26    3.559476687593474E-23    -3.149624316862742E-22   -3.895087171927067E-22   -1.7891082935538748E-23  1.0153909741639623E-28   2.7876633454886176E-24   -1.4907661069568129E-24  1.5700800760593434E-21   3.3115426350944425E-20
2.4999999999999998E-6     4.46651887554798E-26     -7.6981133399334325E-25  -1.6197823353213492E-22  -1.746745718185558E-21   1.3454331006594137E-21   -1.737364889277066E-21   -3.480311853853833E-28   6.867526022255041E-24    -2.857853410650911E-24   -1.1592286533473513E-20  -6.415709170076131E-20
3.0E-6                    4.83941522637242E-26     -1.9991817702785724E-24  -2.2550513205777243E-22  -2.008322836802708E-21   1.7082591111459047E-22   7.843029418153141E-22    -2.680547043746323E-28   5.5540197320397345E-24   1.3044667776327573E-23   2.975220659876871E-20    -6.175572926853857E-20
3.5E-6                    -3.85202902347165E-25    6.531032714570165E-24    1.431270955156141E-21    9.009890920865763E-21    -4.3631305944199276E-21  1.7993713150688155E-20   -2.5341355843583545E-27  -1.1552842529234546E-23  -2.75788154654822E-23    3.8601688717522795E-20   4.363423947084672E-19
4.0E-6                    -2.32008900070173E-25    2.4809335018799582E-23   1.8110039181701415E-21   1.120166105838364E-20    4.019044486899802E-21    -1.9445499440707144E-21  1.5590923808728318E-26   -2.6438100620511704E-22  -1.9297054293998662E-23  -3.719011898704275E-19   -2.3368918200855723E-19
4.5E-6                    1.8431606526808844E-24   -1.3803406021421808E-23  -9.902348452836917E-21   -3.392624297082439E-20   2.5878849716381624E-20   -7.418897345749823E-20   5.301323345946216E-26    -3.6867630172056323E-22  -1.6641195154856518E-23  1.0460677076705893E-19   -1.772996217575792E-18
4.9999999999999996E-6     3.515344296833497E-24    -2.000670816115712E-22   -1.5105024275615988E-20  2.513691147682247E-20    1.5818308307072623E-20   1.1203532380439E-20      -1.4772708926784325E-25  1.942088132955199E-21    -7.078518838744827E-22   1.4370943374826444E-18   2.9607817173709937E-19
5.5E-6                    -5.076945244334028E-24   -1.572162438865717E-22   5.191931527413218E-20    1.1273769573322203E-19   3.3582732979521386E-20   4.1336670398566834E-19   -5.847418245986388E-25   5.464088175893586E-21    -1.656484463086642E-21   -2.722317052371369E-18   3.0731711328334508E-18
6.0E-6                    -3.2912752957843933E-23  1.0202146654622242E-21   1.2207142653893465E-19   -3.7768799409481857E-19  1.2419818309744806E-19   4.897286906882487E-19    5.8382080224862375E-25   -6.108960715392077E-21   -4.438538474851459E-22   -9.729674187992107E-18   -2.921871915339324E-18
6.5E-6                    -1.6665614034807978E-23  1.8516671049989984E-21   -1.5297800404624306E-19  -7.016825833888046E-19   1.7824746323901692E-19   -6.291331533793941E-19   4.757444253908013E-24    -3.969370392262906E-20   5.7133667503352754E-21   -5.138222632162795E-19   -1.9872407703787523E-17
7.0E-6                    1.8830807479098902E-22   -3.229679122892862E-21   -6.667803591928716E-19   1.902315994050972E-18    2.057069589502888E-18    2.9553718725427625E-21   2.302083715877015E-24    -1.62704714610468E-20    1.380024776122325E-20    1.3122704648913502E-17   -4.339231212176432E-17
7.499999999999999E-6      2.889297236784455E-22    -1.1339899183466893E-20  9.707122256698088E-20    6.261860205996935E-18    8.872490197926461E-18    9.444797464267454E-18    -2.483268244989652E-23   1.6893080387670927E-19   4.298701203090013E-21    -3.28116651970229E-17    -5.094230793340621E-17
8.0E-6                    -6.659390418919769E-22   2.6282228826991446E-21   2.8295551291091365E-18   9.097619603818319E-19    1.5387552765608375E-17   2.7384576308118217E-17   -4.361211283305283E-23   2.7768693127290684E-19   -3.813918835996573E-20   -1.7853948850491115E-16  -5.802550614229861E-17
8.5E-6                    -1.8647298991847417E-21  4.7448875484669274E-20   2.751915628640739E-18    -2.0281362816693228E-17  1.7905331535478273E-17   4.36099464028227E-17     7.895193715667342E-23    -3.472102382019594E-19   -8.034353627835691E-20   -3.7682943102550035E-16  -3.000517044270851E-16
9.0E-6                    8.940143260669713E-22    3.936460393500924E-20    -5.896878063173713E-18   -1.4192126908509568E-17  7.365650521228165E-17    7.686529599165464E-17    3.2724462393053035E-22   -1.5105639308694745E-18  -1.9146095912516023E-19  -5.003768991382188E-16   -1.0754609315656059E-15
9.499999999999999E-6      7.145291960143685E-21    -1.3450355661766976E-19  -1.1929876801996898E-17  1.0210751125613985E-16   3.117295926532047E-16    2.3581616481157136E-16   5.434552940519919E-23    -6.917288993089878E-19   -9.047274196563308E-19   -6.593538415746626E-16   -2.235217716204668E-15
9.999999999999999E-6      3.67894953385944E-21     -3.0382769288835913E-19  1.3262885249897416E-17   2.898182368236056E-16    7.562233426492503E-16    7.1393787786671975E-16   -1.3737112793296012E-21  4.173016734300579E-18    -2.694209943673431E-18   -2.173919877942479E-15   -3.7381591893760096E-15
1.05E-5                   -1.6208423532981795E-20  1.3115776567680817E-19   6.56011307388306E-17     2.797054042928124E-16    1.2999013329751627E-15   1.7116168112226774E-15   -1.896980614414288E-21   7.024374820786078E-18    -3.534902160576176E-18   -7.366528056334589E-15   -7.352363467339671E-15
1.1E-5                    -2.5117309676946367E-20  1.3256755493009033E-18   6.902099292145353E-17    -5.346289258470817E-18   2.5264718750215255E-15   3.568469434988279E-15    3.3064045899685073E-21   -5.527304488860678E-18   1.9459064288995603E-18   -1.583945908456065E-14   -1.6831007766212858E-14
1.15E-5                   8.020064601101785E-21    1.3641813514879883E-18   -2.0184580222454492E-17  3.2045300703840377E-16   6.5661951790939145E-15   7.384138472478653E-15    1.1748263742137782E-20   -2.949022757050986E-17   1.2189838358352896E-17   -2.3684863065607846E-14  -3.6110201789836895E-14
1.2E-5                    6.087387215653503E-20    -2.7194699644972765E-18  -2.3344037845515355E-17  2.835566083575697E-15    1.5457488558761743E-14   1.5798230525317193E-14   3.215469027059104E-21    -2.045117655097211E-17   -4.012732604741505E-18   -3.56572317322641E-14    -6.876711611790182E-14
1.2499999999999999E-5     9.402890400140083E-20    -8.013515618710073E-18   3.9414140498627946E-16   7.797513412833813E-15    2.853576104761147E-14    3.3477940513050455E-14   -3.6569253736104163E-20  5.5268342867598124E-17   -1.0672459736226682E-16  -7.546682008675575E-14   -1.2020996370418237E-13
1.3E-5                    7.689905256594078E-20    -9.540467734151689E-19   1.3193759563675303E-15   1.3067057325692453E-14   4.6536380069282755E-14   6.823606933492837E-14    -5.77393808606486E-20    1.0226080279378266E-16   -3.0299139824916396E-16  -1.6133818741543006E-13  -1.998995969294596E-13
1.35E-5                   -1.7371148120908013E-19  2.6172635320081753E-17   2.442006179505295E-15    1.7715668963002104E-14   8.124647778911905E-14    1.3443473507178044E-13   4.130094419319094E-20    -7.523751902636639E-17   -4.3488085163506196E-16  -2.6821908455207473E-13  -3.1935948900033804E-13
1.4E-5                    -7.459314928399132E-19   4.309026915175945E-17    3.5609466405243466E-15   2.751676989998555E-14    1.519242945605685E-13    2.557550069424798E-13    2.286674063298956E-19    -4.35312920598456E-16    -2.825606339801968E-16   -3.663722511480624E-13   -4.973764772360034E-13
1.45E-5                   -3.8371576608432116E-19  -6.809265193350581E-18   5.265932208433925E-15    5.3562926286400317E-14   2.6668265457882955E-13   4.605232875981571E-13    1.7519814780057216E-19   -4.74653847858516E-16    -2.868552912805201E-17   -5.437292584916138E-13   -8.016936727739838E-13
1.4999999999999999E-5     3.177176371157308E-18    -1.0843311805432037E-16  9.685014064667328E-15    1.0589793335769965E-13   4.3184375966037757E-13   7.841900326889069E-13    -4.243778874566791E-19   1.733527110717813E-16    -6.863696564597786E-16   -1.015494596939775E-12   -1.3705799203750734E-12
1.55E-5                   7.500162139742048E-18    -9.069223583809927E-17   2.1495873326137506E-14   1.993270038643226E-13    7.038481483359188E-13    1.3204641093478768E-12   -1.075765661518508E-18   7.500574537170043E-16    -3.8026382832631146E-15  -1.8469794139020844E-12  -2.239293142086182E-12
1.6E-5                    1.5478485627941051E-18   2.471183481629871E-16    4.665795313992613E-14    3.6854253877221404E-13   1.1855376132148717E-12   2.27673112669804E-12     -4.118716721635554E-19   -3.383198638335758E-16   -1.0328579093226123E-14  -2.6788432655698666E-12  -3.095990769852417E-12
1.6499999999999998E-5     -1.7779261012301098E-17  7.8807254359295085E-16   8.722851342676333E-14    6.490229041083123E-13    1.8891008209057877E-12   3.813318405517345E-12    2.06032355994257E-18     -3.774490799617898E-15   -1.9471660468221267E-14  -3.1313197908900963E-12  -3.673830704517205E-12
1.7E-5                    -1.622274330818978E-17   9.207128228979638E-16    1.4266338535904913E-13   1.0146411320641063E-12   2.6642068117696147E-12   5.620677016543883E-12    3.782274409800134E-18    -8.602504611262245E-15   -2.9380653092828424E-14  -3.942569206983756E-12   -4.959560244388984E-12
1.75E-5                   5.888694751277746E-17    1.2108252693332939E-16   2.3019098118031944E-13   1.3846090555547637E-12   3.5572287618432552E-12   6.923822893423708E-12    2.836598089700815E-19    -1.3607025263335524E-14  -4.2650800336201917E-14  -7.463215418098462E-12   -9.576798828722137E-12
1.8E-5                    1.7860277687192214E-16   -6.628528734124608E-16   4.027614052216572E-13    1.832101752607229E-12    5.540083201258593E-12    7.787558543765986E-12    -9.281475687764067E-18   -1.869365008247221E-14   -7.660532259473402E-14   -1.59905819364425E-11    -1.968343772484482E-11
1.85E-5                   1.7985312891462515E-16   1.7495453019361515E-15   7.17224612201144E-13     2.8987059398041245E-12   1.0764991194883192E-11   1.0891264806658145E-11   -1.7849040626631706E-17  -2.7510218094685993E-14  -1.6686796606391682E-13  -2.8991932810289448E-11  -3.419848789863412E-11
1.8999999999999998E-5     -3.5437239773750113E-17  1.0589317179648953E-14   1.1722889973409428E-12   5.6488718844513255E-12   2.139672986697973E-11    2.0895460452961467E-11   -1.4244860117293455E-17  -5.611114851856992E-14   -3.469005223210713E-13   -4.273379396969495E-11   -4.924423975072957E-11
1.95E-5                   -1.287016473817778E-16   2.4649297739407204E-14   1.7469480207929721E-12   1.1170220467144552E-11   3.734338403045964E-11    4.0058197672456306E-11   6.443635541499232E-18    -1.389668018530256E-13   -6.131969910805356E-13   -5.372502649992765E-11   -6.1645938752422E-11
1.9999999999999998E-5     7.146402526293347E-16    3.8528137434676977E-14   2.6261702583422757E-12   1.972631751751911E-11    5.495822141232854E-11    6.394872819458191E-11    2.9611807811974196E-17   -3.0825786315505936E-13  -9.344236404218488E-13   -6.215346429270385E-11   -7.066985322312888E-11
2.05E-5                   3.103478488006812E-15    5.4816708212250404E-14   4.4449853252886515E-12   3.031018511778375E-11    6.878539304194801E-11    8.326634773719514E-11    -6.505854293459832E-18   -5.520186985605924E-13   -1.3584599985586988E-12  -7.066533597058839E-11   -7.610537558211609E-11
2.1E-5                    6.597333350501999E-15    1.005689535915618E-13    8.190661672612839E-12    4.1274525377167054E-11   7.559124562134524E-11    9.173911330351906E-11    -2.588477714449747E-16   -8.204864602155498E-13   -2.1625281499026526E-12  -7.979295117597198E-11   -7.681246997741957E-11
2.1499999999999997E-5     1.0276321684931088E-14   2.2416603758832562E-13   1.4592912572449505E-11   5.1696017138013006E-11   7.682232566428178E-11    9.17722622021003E-11     -9.876301567879783E-16   -1.1425994644566264E-12  -3.863629670010098E-12   -8.594004510333398E-11   -7.223701422119494E-11
2.2E-5                    1.5914439779663703E-14   4.621325161864539E-13    2.334341634738087E-11    6.199721812511281E-11    7.649259400587326E-11    9.044323262446499E-11    -2.456662755332857E-15   -1.7778948198908894E-12  -6.938810975981275E-12   -8.419426706836058E-11   -6.309141157759911E-11
2.2499999999999998E-5     3.220087564719745E-14    8.107777182645318E-13    3.286293538628822E-11    7.275878261956329E-11    7.633331640478856E-11    8.948950635974843E-11    -4.95161245899707E-15    -3.201027634623722E-12   -1.1362127571683109E-11  -7.18243584218597E-11    -4.857487044782079E-11
2.3E-5                    7.496592730425757E-14    1.2617043335311495E-12   4.107919830426278E-11    8.273372388766153E-11    7.318823997502605E-11    8.077438207852456E-11    -9.575326337146178E-15   -5.810662331064001E-12   -1.6345428050471408E-11  -4.8363214441671914E-11  -2.4521461325019296E-11
2.35E-5                   1.5939092923345948E-13   1.9104116609099273E-12   4.674631907248126E-11    8.82793278426661E-11     6.09819945564487E-11     5.273118771709766E-11    -2.0117724646332073E-14  -9.55443305925687E-12    -2.0628976697401717E-11  -1.3424326298354698E-11  1.3608755702075396E-11
2.4E-5                    2.897198576690686E-13    3.0532041533489307E-12   5.002661646062631E-11    8.484679336399823E-11    3.458558220819689E-11    5.760350755768093E-13    -4.4546266816220495E-14  -1.3840080914556946E-11  -2.3198306530451122E-11  3.437373675018785E-11    6.687283232425735E-11
2.45E-5                   4.631886678206448E-13    5.150623672446E-12       5.1524981697236063E-11   6.89214216010808E-11     -8.252493734213325E-12   -7.053083706122916E-11   -9.332465179604503E-14   -1.787247920284418E-11   -2.380784558868756E-11   9.656879635697332E-11    1.3336062671418198E-10
2.4999999999999998E-5     7.007918356490596E-13    8.616005211783011E-12    5.0643537064512306E-11   3.8994153167542214E-11   -6.757748379502128E-11   -1.5124384932447191E-10  -1.7442265361421025E-13  -2.1090852754337126E-11  -2.2779089592226156E-11  1.7345428744858863E-10   2.1081301316636052E-10
2.55E-5                   1.0913037319233936E-12   1.3527175156135782E-11   4.509715111818482E-11    -4.230625930591601E-12   -1.4237627256148156E-10  -2.354097124518042E-10   -2.9162681025160694E-13  -2.322811990432584E-11   -2.0264763234687828E-11  2.6301053396222035E-10   2.9641950010208437E-10
2.6E-5                    1.8072898413876123E-12   1.9435024499023452E-11   3.219481638541435E-11    -5.817254070456348E-11   -2.3047446790358494E-10  -3.2257471915467377E-10  -4.560708005649547E-13   -2.3943320605372772E-11  -1.576356007975908E-11   3.6063180822951784E-10   3.853130812165316E-10
2.65E-5                   3.054912967360815E-12    2.538874362568859E-11    1.0455909818890373E-11   -1.199273914715539E-10   -3.2763549145009465E-10  -4.157683909143131E-10   -7.11426065435482E-13    -2.2524884193033888E-11  -8.397227886763298E-12   4.6048776451041413E-10   4.72454935711561E-10
2.7E-5                    4.961223210690546E-12    3.0161520341943134E-11   -1.9987355681463172E-11  -1.8857820886607093E-10  -4.277496017039433E-10   -5.178974320439753E-10   -1.1533071926628527E-12  -1.811944135285005E-11   2.3843324432605613E-12   5.582982565176798E-10    5.565043449398483E-10
2.7499999999999998E-5     7.455792503315355E-12    3.2551539670031085E-11   -5.7953327312250735E-11  -2.65864047177845E-10    -5.253131580952584E-10   -6.28664057173876E-10    -1.9122167265248176E-12  -1.0297836486255138E-11  1.6414064511595584E-11   6.530560906113988E-10    6.397085750545148E-10
2.8E-5                    1.0227458006088516E-11   3.1622020427432934E-11   -1.0156446598124437E-10  -3.5397220086378377E-10  -6.188793797760933E-10   -7.427261400558091E-10   -3.086922521630367E-12   6.887613917678702E-13    3.302221083656877E-11    7.453761930784929E-10    7.229501975010698E-10
2.8499999999999998E-5     1.2804534229589998E-11   2.6805940655459062E-11   -1.483119259016478E-10   -4.5277410325632727E-10  -7.120989799003604E-10   -8.501344560105148E-10   -4.657675624272943E-12   1.429031128213205E-11    5.146794605559126E-11    8.336613807233259E-10    8.017220804654909E-10
2.9E-5                    1.4723585593946463E-11   1.785639661334561E-11    -1.9570208970530932E-10  -5.595952517384461E-10   -8.100024571645041E-10   -9.392721111485507E-10   -6.4410993967393685E-12  3.026682497142297E-11    7.112975214505719E-11    9.119276006271062E-10    8.669940359456749E-10
2.95E-5                   1.567084658254063E-11    4.650369370058816E-12    -2.425156128477314E-10   -6.711575064876283E-10   -9.121096539153686E-10   -1.0002964986627662E-9   -8.131742819286908E-12   4.882481411689484E-11    9.150043670898543E-11    9.711538872532796E-10    9.085240821408285E-10
2.9999999999999997E-5     1.5481637565987674E-11   -1.3068655895142855E-11  -2.896482965554599E-10   -7.843984434914353E-10   -1.0073710334237167E-9   -1.0263651426139963E-9   -9.410152632989614E-12   7.009358832729658E-11    1.1236373681174975E-10   1.0018642162322277E-9    9.167556019130115E-10
3.05E-5                   1.3993503683059504E-11   -3.576492242887705E-11   -3.3993776208492995E-10  -8.944162461886009E-10   -1.0754532504409427E-9   -1.0121033225041503E-9   -1.0039818250813952E-11  9.352637587873492E-11    1.3418530570037946E-10   9.94843511613158E-10     8.831470777054642E-10
3.1E-5                    1.0882422371222373E-11   -6.371815919109147E-11   -3.9713218032802746E-10  -9.917596260683867E-10   -1.0943004208256055E-9   -9.515944426065937E-10   -9.888108242200208E-12   1.179750446093603E-10    1.5815335685070174E-10   9.401719279233639E-10    8.005104877298639E-10
3.15E-5                   5.639293955144157E-12    -9.623095009216921E-11   -4.637881771614011E-10   -1.0627485341420632E-9   -1.0488091518240155E-9   -8.384294540022081E-10   -8.882785294961111E-12   1.4247242580602167E-10   1.8534851800236472E-10   8.271931387055038E-10    6.631026813891666E-10
3.2E-5                    -2.2610887833126253E-12  -1.310869017067188E-10   -5.379253104591129E-10   -1.0935656470346868E-9   -9.344233105114324E-10   -6.674918656019026E-10   -6.9709223253361016E-12  1.6688504810638534E-10   2.153801150767889E-10    6.464368561180907E-10    4.657503522743904E-10
3.25E-5                   -1.3082107139823798E-11  -1.6504631835610996E-10  -6.103470300884662E-10   -1.0745350759075244E-9   -7.53557134044743E-10    -4.3544774139321017E-10  -4.113923746263065E-12   1.9159015050208514E-10   2.455453661642009E-10    3.917361943741354E-10    2.0348371334911811E-10
3.2999999999999996E-5     -2.6593170338264726E-11  -1.9537974553587746E-10  -6.661170717019577E-10   -1.0002147384622955E-9   -5.082675828405356E-10   -1.3826094942697085E-10  -2.7778295061771933E-13  2.1630018584009268E-10   2.7125513054440703E-10   6.07624784458072E-11     -1.2659606269665502E-10
3.35E-5                   -4.2047468550784206E-11  -2.2130223355189603E-10  -6.909625227678088E-10   -8.651733236480169E-10   -1.950346877236386E-10   2.3137241027685221E-10   4.624600257378069E-12    2.3908082674577897E-10   2.8748371822758883E-10   -3.4566674507908295E-10  -5.226810640554676E-10
3.4E-5                    -5.848379643479862E-11   -2.439319269074612E-10   -6.780354774828826E-10   -6.602535409020407E-10   1.9443145753336547E-10   6.819144132943604E-10    1.0790966362859653E-11   2.5649025696850055E-10   2.903662836399433E-10    -8.241337870643033E-10   -9.779744833549682E-10
3.45E-5                   -7.527983456171385E-11   -2.6454964807081393E-10  -6.289194236687306E-10   -3.739060812575736E-10   6.671628548183056E-10    1.2159091557867328E-9    1.848219503955503E-11    2.647692900774426E-10    2.781137801971122E-10    -1.3685656517250314E-9   -1.4830353008903398E-9
3.5E-5                    -9.257864905184225E-11   -2.8245602108545274E-10  -5.477221195679104E-10   2.3016073268112222E-12   1.2227783909864034E-9    1.8238020801431153E-9    2.7858430822869893E-11   2.6114045169749014E-10   2.5077029417020635E-10   -1.9700196466792496E-9   -2.0278262257805736E-9
3.5499999999999996E-5     -1.1109004108075209E-10  -2.940980610265469E-10   -4.335173191453238E-10   4.6937144339242E-10      1.8522345549062526E-9    2.4845368966831997E-9    3.8847902671971665E-11   2.442386308972232E-10    2.0885613707154945E-10   -2.616454625451851E-9    -2.601292283390669E-9
3.6E-5                    -1.3116634076491692E-10  -2.9404882817638185E-10  -2.7764981399358586E-10  1.0215211792148558E-9    2.541311088863963E-9     3.1719902432533135E-9    5.120922763514666E-11    2.1339539336277193E-10   1.5165690787437116E-10   -3.2920841625987144E-9   -3.1890660016966893E-9
3.65E-5                   -1.5178092179298525E-10  -2.770195386432375E-10   -6.781386398276248E-11   1.650082452344529E-9     3.2736440201495208E-9    3.860458990650261E-9     6.474667300316503E-11    1.6737415872046986E-10   7.635155545993108E-11    -3.976156893052646E-9    -3.770990952350431E-9
3.7E-5                    -1.7035690892225654E-10  -2.3958741302127754E-10  2.04727243993552E-10     2.3459038406837277E-9    4.029335725099926E-9     4.524215626213674E-9     7.943614987298065E-11    1.0361639738668183E-10   -2.130149731421314E-11   -4.641699674174776E-9    -4.319808386147488E-9
3.75E-5                   -1.8378757757214055E-10  -1.808037684914179E-10   5.402234210095974E-10    3.09770426225106E-9      4.780963064070326E-9     5.133074130993153E-9     9.526766901514085E-11    1.873012058708592E-11    -1.4511414695707768E-10  -5.255030375832645E-9    -4.802074857518992E-9
3.7999999999999995E-5     -1.8989053754271464E-10  -1.0156386816749759E-10  9.307061910848508E-10    3.888139956826326E-9     5.491710788833276E-9     5.649841075807516E-9     1.1187836297496169E-10   -9.00307663547847E-11    -2.9658939184643704E-10  -5.776576465346046E-9    -5.1813710072253095E-9
3.85E-5                   -1.8801528705185573E-10  -3.1276594009282296E-12  1.3641381238063242E-9    4.691177326918832E-9     6.1174075142943695E-9    6.032623110829006E-9     1.2825723996786195E-10   -2.2339809723910238E-10  -4.739584309546133E-10   -6.163055371786261E-9    -5.421881220455524E-9
3.9E-5                    -1.7819198910844052E-10  1.1443611487895762E-10   1.8286975878225415E-9    5.472441067550344E-9     6.610230732643394E-9     6.239428488347865E-9     1.427480448002564E-10    -3.79821672320417E-10    -6.723421877183039E-10   -6.370463139570711E-9    -5.490041740017593E-9
3.95E-5                   -1.5953871372674794E-10  2.5289603243709574E-10   2.314213902970172E-9     6.191155043114933E-9     6.921693329714528E-9     6.230719091934695E-9     1.5334284312144762E-10   -5.562727731146743E-10   -8.846411351712733E-10   -6.356778847960038E-9    -5.354328301774756E-9
3.9999999999999996E-5     -1.2941278174681355E-10  4.1493601665949186E-10   2.810398189414079E-9     6.8014529939106856E-9    7.0049522620546315E-9    5.968826191345555E-9     1.5806715774855108E-10   -7.491552484466427E-10   -1.1025957751285308E-9   -6.083518550288733E-9    -4.985365748194376E-9
4.0499999999999995E-5     -8.422788790151472E-11   6.019288096807002E-10    3.3035724211226773E-9    7.252765474557855E-9     6.81720827818036E-9      5.417192930453308E-9     1.5522997959675158E-10   -9.54377969445569E-10    -1.3176258496893466E-9   -5.516428023529881E-9    -4.357761846911032E-9
4.1E-5                    -2.140212683676315E-11   8.115632876237634E-10    3.773970894084307E-9     7.490991190303694E-9     6.321300980416992E-9     4.542817338618871E-9     1.4342816807449332E-10   -1.1664806406165666E-9   -1.5212670576649018E-9   -4.626530406981402E-9    -3.45301125081174E-9
4.15E-5                   5.914222518370632E-11    1.0366554661737196E-9    4.194964667518684E-9     7.461637425331102E-9     5.485075795404927E-9     3.3218986715419572E-9    1.2137524098404843E-10   -1.377536528954278E-9    -1.705107552135467E-9    -3.39237718416686E-9     -2.262094832020482E-9
4.2E-5                    1.551607698485715E-10    1.26583269801753E-9      4.5345396628109625E-9    7.113906360767243E-9     4.279763911646066E-9     1.7453529210885117E-9    8.776370410101487E-11    -1.576733612249985E-9    -1.8601957998064833E-9   -1.803302375478097E-9    -7.869528550002612E-10
4.2499999999999996E-5     2.637414771863025E-10    1.4857713545128777E-9    4.758316674105773E-9     6.403827547118683E-9     2.6812765528145947E-9    -1.7879005579779236E-10  4.135074088955684E-11    -1.7510186658522348E-9   -1.976182866440524E-9    1.3704221672708327E-10   9.591899427550775E-10
4.2999999999999995E-5     3.829899926879302E-10    1.683812187880853E-9     4.832690697335505E-9     5.295984187487644E-9     6.766176393227512E-10    -2.4255766662832588E-9   -1.874507130146878E-11   -1.8864260687851754E-9   -2.040873660719264E-9    2.4076384078938227E-9    2.951683057470461E-9
4.35E-5                   5.123636826965716E-10    1.8494895629230002E-9    4.7268590886620195E-9    3.76505093408425E-9      -1.7273322541406647E-9   -4.952946337128816E-9    -9.277185657281554E-11   -1.969311819418691E-9    -2.0408307415643295E-9   4.96843986088677E-9      5.153046913996714E-9
4.4E-5                    6.514713067361587E-10    1.974038624713108E-9     4.41357634157358E-9      1.798253184849352E-9     -4.497925561866494E-9    -7.699812332110211E-9    -1.8034041985621228E-10  -1.986959684960944E-9    -1.9628673909336644E-9   7.760678182371501E-9     7.510297530285175E-9
4.45E-5                   7.983353021828828E-10    2.048141878024743E-9     3.8695164863744376E-9    -6.01525942530166E-10    -7.57639801422248E-9     -1.058449489382507E-8    -2.806684182790005E-10   -1.9275942804029656E-9   -1.7953457746617182E-9   1.0708404648939614E-8    9.953329673069703E-9
4.4999999999999996E-5     9.482969136483825E-10    2.0593971596185447E-9    3.0762256875249514E-9    -3.4131295519261323E-9   -1.0881387958750443E-8   -1.350641403760421E-8    -3.927618125808589E-10   -1.7801823612423088E-9   -1.5283343218366673E-9   1.3719593350823953E-8    1.2396689046305465E-8
4.5499999999999995E-5     1.0940189692209554E-9    1.9914237714228724E-9    2.0217843091464724E-9    -6.595606937853552E-9    -1.4312969577188308E-8   -1.635117700907618E-8    -5.152217357530251E-10   -1.5344169847467449E-9   -1.1529991713010816E-9   1.668630135797468E-8     1.4744184008430653E-8
4.6E-5                    1.226259896834492E-9     1.8257482698440446E-9    7.023676412022705E-10    -1.0087146756429888E-8   -1.775506183517411E-8    -1.8996293590515902E-8   -6.456988984000046E-10   -1.1812010555234685E-9   -6.616594152402884E-10   1.9485637300332707E-8    1.6893616784701734E-8
4.65E-5                   1.3348637567073218E-9    1.5459357093583507E-9    -8.771004465860971E-10   -1.3803362360817976E-8   -2.1076017741753222E-8   -2.1314871341473912E-8   -7.803672881407927E-10   -7.137900932232337E-10   -4.938791901307362E-11   2.198363449048446E-8     1.873999356851331E-8
4.7E-5                    1.4096109366283338E-9    1.1418685209030115E-9    -2.703001909030091E-9    -1.7634984293471304E-8   -2.4128746958715604E-8   -2.317719114586744E-8    -9.137895643434921E-10   -1.2934522342010938E-10  6.83521732429643E-10     2.404179772353886E-8     2.0177927501295853E-8
4.7499999999999996E-5     1.4407933458475932E-9    6.11806976095439E-10     -4.7526617071684904E-9   -2.144671748297618E-8    -2.6752672130202877E-8   -2.4452317859362526E-8   -1.0391937296477899E-9   5.69783682400464E-10     1.5296737006996133E-9    2.552384862479696E-8     2.1104609890907752E-8
4.8E-5                    1.4194827349653087E-9    -3.869178766133235E-11   -6.992651449915649E-9    -2.5079278564347184E-8   -2.877942315179419E-8    -2.5012135548169663E-8   -1.1488508349618675E-9   1.3756231677405577E-9    2.4740271177260726E-9    2.630066712362943E-8     2.1423852907205794E-8
4.85E-5                   1.3375458053801625E-9    -7.99712650963528E-10    -9.375970629248181E-9    -2.8355050626022283E-8   -3.004207504035957E-8    -2.4738597612544993E-8   -1.2342755061288678E-9   2.2748754086111207E-9    3.4943638045406507E-9    2.6253882637224236E-8    2.1051115432302384E-8