% Model:              Untitled.mph
% Version:            COMSOL 6.0.0.405
% Date:               Jul 15 2025, 19:18
% Dimension:          1
% Nodes:              401
% Expressions:        11
% Description:        Point graph
% Time (s)                Displacement field, Y component Displacement field, Y component Displacement field, Y component Displacement field, Y component Displacement field, Y component Displacement field, Y component Displacement field, Y component Displacement field, Y component Displacement field, Y component Displacement field, Y component Displacement field, Y component
0                         4.816146577032963E-33    -5.1204133636608416E-33  6.286949982172248E-31    -5.773688773948008E-31   1.7418561831886167E-30   4.630257741321721E-31    5.8059440664243855E-31   -3.0087756414577984E-33  -2.8763566767697672E-33  -1.512272405366235E-33   5.018243658068985E-33
5.0E-7                    -1.2502646014615778E-24  9.901192229165151E-24    1.0675923343681545E-21   5.316548015989588E-21    2.4660233232595117E-21   1.0772944485320829E-21   4.666202770961683E-22    4.324488435102095E-24    2.8995471400374655E-25   -1.3899493028553788E-25  -1.3498001089809523E-25
1.0E-6                    2.835047814650287E-24    -7.489451400098502E-23   -8.166971057617068E-21   -1.4159997011657635E-20  -1.2152843196195946E-20  -8.597128481756565E-21   -4.62833247427442E-21    -4.3653395975045156E-23  2.9783496558388387E-24   9.29814565680458E-24     -5.507594818577569E-24
1.5E-6                    1.8335865800980704E-23   2.177732732300922E-22    1.78230349932896E-20     -3.6912870567310534E-20  1.510511688550952E-20    1.5145433795542033E-20   1.4991782216678384E-20   1.752041713538254E-22    -3.465317503096749E-23   -5.421359169311263E-23   4.7249927420413165E-23
2.0E-6                    -9.225130147583363E-23   1.1622291304721715E-22   1.2338372343902758E-20   9.053742310295396E-20    -1.012861832574458E-19   2.1015707290546466E-20   -7.196649509282738E-21   -1.0072021867808089E-22  1.5666608016175344E-22   6.956938604086009E-23    -1.336645690003985E-22
2.4999999999999998E-6     -2.943508893838102E-23   -1.3629382505387075E-21  -7.687968969331333E-20   4.830098016303376E-19    4.15478582793473E-19     -1.13638548362976E-19    -5.535190794208037E-20   -1.3834815083732219E-21  -1.6906813035384772E-22  2.9420798900081306E-22   -2.1735782607407755E-22
3.0E-6                    4.152066456510901E-22    -4.756717344701359E-22   -1.0132513669327548E-20  -1.5779505634132107E-19  7.253865156106509E-19    -4.2771903468462274E-20  4.3694661132945524E-20   2.83174236862769E-21     -9.686251522993986E-22   -8.211616383865516E-22   1.1740969214896822E-21
3.5E-6                    -3.0395003110869385E-23  9.9429821804414E-24      1.127103590675278E-19    -5.2502224700977596E-18  -3.4512782029344153E-18  2.077976523407624E-19    2.564281569382212E-19    6.366241802775284E-21    2.5193745545643488E-21   -1.2087511929971856E-21  1.9154250379320833E-21
4.0E-6                    1.973673311333556E-21    2.2825010179278103E-20   1.63591982894582E-19     -4.4478202114655384E-18  -2.5755814660869973E-18  -5.878752706476224E-19   2.112659693825452E-19    -1.9451441743416277E-20  3.620720883170978E-21    5.05732007709276E-21     -7.334164477976346E-21
4.5E-6                    -1.7352630530354507E-22  3.779872601635371E-20    5.685847012301233E-19    2.7243451901431257E-17   1.3802633694863828E-17   -3.6448208632104615E-20  -1.722382026671477E-18   -3.3989145595496703E-20  -1.5815234217769667E-20  5.2970936285754696E-21   -1.4997812830743956E-20
4.9999999999999996E-6     -6.158103176348981E-20   -2.6513711915297796E-19  -1.1077099085201523E-18  3.990293967259624E-17    5.616612879050628E-18    4.745747812947743E-18    -3.4772456394877685E-18  9.4864559546301E-20      -1.0492295799403556E-20  -2.268915554782545E-20   4.4255690655208915E-20
5.5E-6                    -4.5011477706182654E-20  -3.4490348875915076E-19  -6.469570067065292E-18   -9.169917471255147E-17   -4.375997739789515E-17   -3.426565880812803E-18   6.377854242149917E-18    2.0279007809088053E-19   6.87740962210723E-20     -2.4190887582817008E-20  8.186301719323958E-20
6.0E-6                    6.381828437573311E-19    1.6960680039307387E-18   2.74631435912952E-18     -2.133717629046641E-16   -1.3044287670068062E-17  -2.910906748149999E-17   1.9123970206405792E-17   -3.6545029366796396E-19  1.7282313090066498E-20   7.717488282030816E-20    -2.5955697698630043E-19
6.5E-6                    6.131340144458866E-19    1.7139919714719238E-18   3.6025841742689075E-17   1.6787169355260582E-16   1.186142562966509E-16    8.36174913259144E-18     -1.505707291591746E-17   -1.1666580822403462E-18  -2.3664481203429323E-19  9.083555386948868E-20    -3.4567550356060934E-19
7.0E-6                    -4.8338635321496605E-18  -9.463798618426969E-18   6.555057002630803E-18    7.471667856350324E-16    2.2312207647123566E-17   1.1750786770114178E-16   -7.953885306100795E-17   6.951398320380463E-19    4.646927018366535E-20    -2.3156191590372197E-19  1.6471396899253768E-18
7.499999999999999E-6      -7.346672063398997E-18   -1.087897419181513E-17   -1.5332243157895332E-16  -1.1085719774500795E-16  -3.69119872432892E-16    -1.5132621374273762E-17  -1.3520921416392016E-17  5.0902198584890975E-18   6.908331462598333E-19    -2.7170524203086893E-19  2.6499240211709385E-18
8.0E-6                    2.0573534234902062E-17   3.582686708704195E-17    -1.5520143878910048E-16  -2.3354581275139153E-15  -2.3365040656098823E-16  -5.01827226393075E-16    2.034589226108986E-16    1.299958438578182E-18    -8.63491686499584E-19    7.948332677553733E-19    -6.122340681808633E-18
8.5E-6                    4.2358032022612906E-17   4.4251074381505916E-17   3.305863436142171E-16    -1.4930980331496081E-15  7.772760406135444E-16    -4.011152646301246E-16   1.7426500103092185E-16   -1.8073383333594336E-17  -2.9380009712787673E-18  8.590116513277778E-19    -1.4570939106477722E-17
9.0E-6                    -8.010705450273434E-17   -1.5671843899238296E-16  5.705076763241489E-16    4.567596786940914E-15    7.861552001484548E-16    1.0301710389489355E-15   -3.9802642418824826E-16  -2.3292190645093817E-17  3.744861559770285E-18    -3.3699546691335253E-18  1.9481850340272376E-17
9.499999999999999E-6      -2.700338138352077E-16   -3.304232421140215E-16   -7.106086930069093E-16   6.197490463925597E-15    -1.7565885430080299E-15  1.711884487316333E-15    -9.22717213653904E-16    3.209548215652161E-17    1.2244381496951592E-17   -4.99973985367276E-18    9.681449900774905E-17
9.999999999999999E-6      -2.7748472285530893E-17  1.4790038390688804E-16   -2.3770362028775022E-15  -7.143002075523081E-15   -3.572869748530848E-15   -1.419190644326368E-15   -3.3742459613742514E-16  8.55912912056062E-17     -1.4458169459206577E-17  1.052841127788063E-17    8.454725094257974E-17
1.05E-5                   5.897514571240046E-16    7.401875991152516E-16    -1.2590036829273463E-15  -2.119080107802265E-14   -5.043583659684091E-16   -6.130373004774184E-15   1.3179541068745279E-15   -6.511311326445349E-17   -6.775798633582679E-17   2.4967813204856166E-17   -1.444092485530708E-16
1.1E-5                    -1.2429314302223632E-16  -1.0201005280839532E-15  7.560054670871708E-16    -8.850326285179214E-15   2.5910151624405697E-15   -5.6303313080897906E-15  1.6852484033684716E-15   -3.9576022934038005E-16  -2.404308736384777E-17   -2.4367719290089203E-17  -2.578652346939204E-16
1.15E-5                   -3.5085351057221896E-15  -5.8856457425619414E-15  -5.456194006284368E-15   1.130283134084194E-14    -3.435470896507261E-15   5.420562923541293E-16    -2.8412410310079944E-15  -3.548066747497583E-16   1.4837994254520096E-16   -1.2229561851342558E-16  7.465040459977609E-16
1.2E-5                    -6.900877274642577E-15   -8.815016732260555E-15   -2.3275216080807888E-14  -3.066601467057892E-14   -1.479755122034434E-14   3.343424891869285E-15    -1.1482165965991384E-14  1.8457110401087616E-16   6.80350665609886E-17     -6.733667811263372E-17   3.4091247047674904E-15
1.2499999999999999E-5     -6.841399586487901E-15   -6.03215649318277E-15    -4.3035104330122685E-14  -1.538925436002759E-13   -2.209598563005916E-14   -4.113275070737754E-15   -1.3899413899058181E-14  -4.685251946525494E-16   -6.732720978772479E-16   2.3872938719511566E-16   5.722001668815127E-15
1.3E-5                    -1.081180394866445E-14   -1.2799888532304177E-14  -6.831336796118182E-14   -2.7554523799836415E-13  -3.8755819230057594E-14  -2.5500292040048395E-14  -3.0735823476104927E-15  -4.067126687189861E-15   -1.4345571396224935E-15  2.566495215683935E-16    4.939118811349888E-15
1.35E-5                   -4.1369996049997E-14     -6.513651949261737E-14   -1.5021879967578797E-13  -3.7470806608950147E-13  -8.94222365337123E-14    -7.493169961542592E-14   -4.5975293504182924E-15  -8.564380429992077E-15   -9.39654865826666E-16    -8.710125111098721E-16   7.637492062078713E-15
1.4E-5                    -1.1890394519775934E-13  -1.841188020127673E-13   -3.760436132447174E-13   -6.798248711894899E-13   -1.7917823044235766E-13  -1.5587082089021358E-13  -6.839949783903006E-14   -1.1845819468609546E-14  -4.795691830260761E-16   -2.6427025497074423E-15  3.654648611269539E-14
1.45E-5                   -2.4654959253094445E-13  -3.469569226427382E-13   -8.328614993517357E-13   -1.5284321235010946E-12  -3.5717426899504046E-13  -2.149660428332052E-13   -1.932103521989933E-13   -2.384508189394939E-14   -5.359080414405486E-15   -2.3913047043106136E-15  1.1196602090332508E-13
1.4999999999999999E-5     -4.4666668544990213E-13  -5.572949269200992E-13   -1.6255539741869997E-12  -3.0291940066995254E-12  -8.088367649994233E-13   -2.083500722037204E-13   -3.0002557214407776E-13  -6.543500903737735E-14   -1.8408666976635405E-14  1.0842453118072437E-15   2.240389925594237E-13
1.55E-5                   -8.46004485433792E-13    -1.0059771975574374E-12  -2.955299141950165E-12   -5.140986959046301E-12   -1.7395884227021098E-12  -2.9313888288748133E-13  -3.931217909389337E-13   -1.4764081310321069E-13  -3.2231264340781573E-14  9.39987945124481E-16     3.675783303152123E-13
1.6E-5                    -1.7080030197161228E-12  -2.1161635021385286E-12  -5.208417679332654E-12   -8.340881203855815E-12   -3.196778424893975E-12   -8.051503290194601E-13   -7.425341847427483E-13   -2.775503535093662E-13   -4.039452855995752E-14   -1.6131739877346407E-14  6.547983220807716E-13
1.6499999999999998E-5     -3.325702361741826E-12   -4.292220531020081E-12   -9.059452818943148E-12   -1.4046331732427994E-11  -5.371203670400598E-12   -1.8205288849432262E-12  -1.7122344101484148E-12  -5.173206142100439E-13   -6.878440248524869E-14   -5.0380770765937607E-14  1.3583877111862667E-12
1.7E-5                    -5.879843196670563E-12   -7.590923218404725E-12   -1.5470681087540842E-11  -2.381213167834962E-11   -9.173613778608642E-12   -2.953626126696605E-12   -3.3301822678042774E-12  -1.0093243977730924E-12  -1.8134503972601615E-13  -6.988981679093826E-14   2.746098884097217E-12
1.75E-5                   -9.464407879332163E-12   -1.1822929054796297E-11  -2.5192320389368933E-11  -3.7603042427170405E-11  -1.5805530557008706E-11  -4.228724732382099E-12   -5.329953607849704E-12   -1.896555172267341E-12   -4.163897495808101E-13   -3.996341480882491E-14   4.8828538258582755E-12
1.8E-5                    -1.4204618579419463E-11  -1.7125273022130883E-11  -3.773592529996556E-11   -5.288256869071067E-11   -2.5044305593497025E-11  -7.207735641100388E-12   -7.904882999678527E-12   -3.297555908670416E-12   -7.175788703029687E-13   -7.993722777837377E-15   7.747684246037546E-12
1.85E-5                   -2.0084009623413132E-11  -2.4155053385414216E-11  -5.090496603717762E-11   -6.593896911181444E-11   -3.44763757675168E-11    -1.408329383680621E-11   -1.2071163155473612E-11  -5.508036673020043E-12   -1.0239066813969303E-12  -1.3308567177720085E-13  1.1575413341037872E-11
1.8999999999999998E-5     -2.6440062487486048E-11  -3.308894699906914E-11   -6.200488261292677E-11   -7.445140003377694E-11   -4.1599257801587025E-11  -2.4485872511409576E-11  -1.8540769777642755E-11  -9.109035208591198E-12   -1.551107804093163E-12   -5.290773747907164E-13   1.680113142367183E-11
1.95E-5                   -3.183675062442067E-11   -4.212166424346357E-11   -6.970678190722571E-11   -7.831347266601138E-11   -4.649581770744919E-11   -3.381330824775339E-11   -2.6064712310498878E-11  -1.4416332910267344E-11  -2.9520648568633068E-12  -1.0302967803357925E-12  2.3366589512807507E-11
1.9999999999999998E-5     -3.491247365611038E-11   -4.747513806551876E-11   -7.395325573373958E-11   -7.743575632689928E-11   -5.080289001711982E-11   -3.658743835577803E-11   -3.149395134546726E-11   -2.0566818455636622E-11  -5.940250294765782E-12   -1.257435293522204E-12   3.019472131646912E-11
2.05E-5                   -3.552236374092771E-11   -4.585404739308905E-11   -7.362226164696296E-11   -6.95514888862949E-11    -5.356334118274101E-11   -3.198634284194276E-11   -3.190921086284638E-11   -2.5544361466891476E-11  -1.0486785805297153E-11  -1.1412868759376146E-12  3.575838570521693E-11
2.1E-5                    -3.4735116773167437E-11  -3.7395609440991885E-11  -6.540138147630258E-11   -5.181872861292461E-11   -5.007169512604238E-11   -2.454026988688665E-11   -2.64760566684222E-11    -2.7644970997335653E-11  -1.5418409830806135E-11  -1.3832815185906393E-12  3.930525672802888E-11
2.1499999999999997E-5     -3.341845921537031E-11   -2.5934201347646156E-11  -4.632677164318442E-11   -2.4582535490190143E-11  -3.6694506673463224E-11  -1.8407017467562663E-11  -1.6195339920302674E-11  -2.6768920406793197E-11  -1.9107470898536588E-11  -3.1010091191745044E-12  4.1215157568533355E-11
2.2E-5                    -3.0924438115989254E-11  -1.5802353306781244E-11  -1.706230003720051E-11   8.610767156451466E-12    -1.586500034693751E-11   -1.2392315737728573E-11  -2.6074885485900236E-12  -2.3715621807065356E-11  -2.0737021171920156E-11  -6.755765127360677E-12   4.1898731455854825E-11
2.2499999999999998E-5     -2.5310176076124646E-11  -7.865537413295946E-12   1.8761951396254973E-11   4.592899213875588E-11    6.1131450878313275E-12   -2.205671686953364E-12   1.2711902767024142E-11   -1.8360658964253536E-11  -2.0722061323974856E-11  -1.1494874922735499E-11  4.056604412309337E-11
2.3E-5                    -1.4649652985492573E-11  1.778218470227967E-12    5.86914453218788E-11     9.043705678931772E-11    2.6664023721851483E-11   1.3512446276403887E-11   2.8123165606439085E-11   -9.452884527070724E-12   -1.9711663010009696E-11  -1.5757680859054435E-11  3.5480118428550844E-11
2.35E-5                   2.1212300087065835E-12   1.9272522556878074E-11   1.040245719445554E-10    1.466947897080883E-10    5.055017201053822E-11    3.183051401499345E-11    4.2596337887186296E-11   3.4655523497305092E-12   -1.7428854116149217E-11  -1.851598807559445E-11   2.5408319199406807E-11
2.4E-5                    2.5381065985542455E-11   4.831512674142263E-11    1.5825143067505334E-10   2.1569973595668326E-10   8.47413371588643E-11     5.007898263971704E-11    5.654652458247219E-11    1.889949213778546E-11    -1.295122949067964E-11   -1.975150117323671E-11   1.0327561840396284E-11
2.45E-5                   5.517678865291076E-11    8.685935582801397E-11    2.238538059270567E-10    2.9528849984991517E-10   1.3065365949745337E-10   6.92162810461481E-11     7.12497420890277E-11     3.5103636159302125E-11   -6.080293660714501E-12   -1.9784740432904387E-11  -9.69414548699451E-12
2.4999999999999998E-5     9.114296202985662E-11    1.28662713737285E-10     3.006052245547049E-10    3.838964885324108E-10    1.8301707632002488E-10   9.154042442803159E-11    8.722619212288598E-11    5.249848641754132E-11    2.269496221438544E-12    -1.849464875975468E-11   -3.604722657170552E-11
2.55E-5                   1.3249856210307388E-10   1.693528388698537E-10    3.8584881271670664E-10   4.804451181224607E-10    2.36471183931784E-10     1.1681596453836428E-10   1.0381320338811245E-10   7.321048597832172E-11    1.1519304264599132E-11   -1.5421785071033133E-11  -7.124709529862233E-11
2.6E-5                    1.7855299326522394E-10   2.1115713233636348E-10   4.75769968895249E-10     5.80664228191159E-10     2.916361672720211E-10    1.422415106405382E-10    1.2055715796576682E-10   9.800308172248228E-11    2.2783918669823125E-11   -1.0446096251190094E-11  -1.16524061496114E-10
2.65E-5                   2.2905425171638047E-10   2.6044650393735246E-10   5.663750026087609E-10    6.76972211095799E-10     3.5291891000503563E-10   1.652835049126872E-10    1.382177797532964E-10    1.2464869216542904E-10   3.791828930133808E-11    -4.0025829201206205E-12  -1.6996273934758735E-10
2.7E-5                    2.8374231733940534E-10   3.203174866506282E-10    6.529494401560382E-10    7.631521167466142E-10    4.203927851176291E-10    1.8503964271265505E-10   1.574755806891157E-10    1.499932517277215E-10    5.711382931900231E-11    3.509978496960382E-12    -2.2766144657239522E-10
2.7499999999999998E-5     3.4171638605257064E-10   3.8687181417509005E-10   7.289883879138141E-10    8.367275489743902E-10    4.860318689434309E-10    2.0139319590352709E-10   1.767202356842826E-10    1.7295474690133647E-10   7.818651220728445E-11    1.2409738733021226E-11   -2.869440554701245E-10
2.8E-5                    4.013044408238219E-10    4.529367539399413E-10    7.87747307313654E-10     8.952941372991223E-10    5.398745644163681E-10    2.1449174182883352E-10   1.9201269948610003E-10   1.943965526783148E-10    9.871257382230995E-11    2.3666531709711522E-11   -3.4799433743855407E-10
2.8499999999999998E-5     4.597894832355306E-10    5.130993284596277E-10    8.259435581340054E-10    9.321055008826652E-10    5.78828813769542E-10     2.2527285542086163E-10   1.998318362636717E-10    2.1405447786919926E-10   1.1845901302543003E-10   3.809008419318658E-11    -4.119626709927433E-10
2.9E-5                    5.124711175796996E-10    5.634015102869938E-10    8.433343243049307E-10    9.365491597794871E-10    6.063897364867719E-10    2.352236923342305E-10    1.9952161605532714E-10   2.2874329837533442E-10   1.3922495261836928E-10   5.5551749670578094E-11   -4.777300540202323E-10
2.95E-5                   5.52574531351026E-10     5.97984749248792E-10     8.354300865283191E-10    8.979124509338583E-10    6.228864750930882E-10    2.445787178707048E-10    1.9234564378124643E-10   2.3442718913043453E-10   1.6254216681793334E-10   7.498987110331485E-11    -5.408557639928322E-10
2.9999999999999997E-5     5.736088641543447E-10    6.092691817102707E-10    7.878355113494324E-10    8.077795465689239E-10    6.187129557185289E-10    2.5046413242794175E-10   1.781353970728424E-10    2.295713417474371E-10    1.879630088254788E-10    9.523529458305189E-11    -5.952467054952341E-10
3.05E-5                   5.724492773072449E-10    5.919666636110727E-10    6.819421789346487E-10    6.597979636299685E-10    5.794780181692293E-10    2.4678408151033975E-10   1.5364390081249048E-10   2.1544041306100708E-10   2.1322483043428804E-10   1.1595934429738958E-10   -6.350490879070739E-10
3.1E-5                    5.493311945547276E-10    5.449568076437922E-10    5.074708103280319E-10    4.4843311219900064E-10   4.965371417560602E-10    2.2638534380277769E-10   1.1473217698260669E-10   1.9296457099417844E-10   2.3517243655056217E-10   1.378713043729352E-10    -6.550103683317681E-10
3.15E-5                   5.039553015558963E-10    4.681875134667463E-10    2.672913003450008E-10    1.6818455105997331E-10   3.7009780989093774E-10   1.8458290497687372E-10   5.983733562657098E-11    1.6003183126124284E-10   2.5027378771440307E-10   1.6184871325031195E-10   -6.501529578675868E-10
3.2E-5                    4.3155284918222237E-10   3.5869439473080613E-10   -3.057921964356142E-11   -1.8583852062003763E-10  2.027375610601225E-10    1.2173191761069562E-10   -9.235008805023732E-12   1.1216251860133529E-10   2.5500732177967085E-10   1.876285177953995E-10    -6.159417647859402E-10
3.25E-5                   3.2309611944452546E-10   2.104297235914652E-10    -3.8331181464565874E-10  -6.160188773350699E-10   -6.927468551225216E-12   4.2489585286887924E-11   -8.971164303984179E-11   4.5379770117710127E-11   2.4657880391358744E-10   2.1320750463575818E-10   -5.483713145012182E-10
3.2999999999999996E-5     1.6961857078916333E-10   1.7337561699668084E-11   -7.94709394039137E-10    -1.1208103109209747E-9   -2.62872069704154E-10    -4.7942008379560995E-11  -1.802961577545994E-10   -4.168046600463018E-11   2.2336609175453738E-10   2.3551695350781794E-10   -4.430305943846193E-10
3.35E-5                   -3.317284696047461E-11   -2.239559161241336E-10   -1.268474679859709E-9    -1.6950965475337308E-9   -5.660091310786638E-10   -1.4724841633818266E-10  -2.809578287656884E-10   -1.4762230426336409E-10  1.8441877671427073E-10   2.516619799557265E-10    -2.9403862953210146E-10
3.4E-5                    -2.8356688583192177E-10  -5.134842796445263E-10   -1.8013167633583971E-9   -2.3302877480335124E-9   -9.120316017162273E-10   -2.5618768032660423E-10  -3.9077671968812813E-10  -2.6943045048215986E-10  1.2860380733709412E-10   2.594644914247776E-10    -9.477154696945034E-11
3.45E-5                   -5.761141959507211E-10   -8.48218204144866E-10    -2.380768065720598E-9    -3.011648673669384E-9    -1.294286827801455E-9    -3.7614382978010004E-10  -5.066262840180939E-10   -4.0394064414252553E-10  5.4511324753168856E-11   2.569695888314387E-10    1.594282538515818E-10
3.5E-5                    -9.049118112046026E-10   -1.222029207818541E-9    -2.9869566434711502E-9   -3.7150885388808957E-9   -1.7063018328967235E-9   -5.069721638356866E-10   -6.241130232355755E-10   -5.487106086482019E-10   -3.889367729017422E-11   2.4186805018873026E-10   4.687910316701959E-10
3.5499999999999996E-5     -1.265085624097238E-9    -1.625430950852211E-9    -3.5953881948440048E-9   -4.4082582676885205E-9   -2.1398597362105667E-9   -6.467772383329636E-10   -7.392854960011394E-10   -7.014283616764976E-10   -1.5185911080167545E-10  2.1178552092174186E-10   8.290457162746472E-10
3.6E-5                    -1.6516426754682445E-9   -2.046042284502612E-9    -4.178531427899305E-9    -5.0558397010768064E-9   -2.5812516593412494E-9   -7.925610461671689E-10   -8.486332451620585E-10   -8.581839041129272E-10   -2.8395042456179204E-10  1.6509846614669067E-10   1.2331988175050448E-9
3.65E-5                   -2.0569390434414295E-9   -2.4702838739906046E-9   -4.706179452176845E-9    -5.623174892541367E-9    -3.010997676359163E-9    -9.399094501169879E-10   -9.471194141545566E-10   -1.0122715463438012E-9   -4.3385581083381454E-10  1.0107853545414993E-10   1.672646683609881E-9
3.7E-5                    -2.4686215030928074E-9   -2.884979301892602E-9    -5.146191234674228E-9    -6.07475762235842E-9     -3.4074185163938824E-9   -1.0817861550933792E-9   -1.0267566302582838E-9   -1.1545109015395215E-9   -5.985327532764198E-10   1.891889991420117E-11    2.1363287338835333E-9
3.75E-5                   -2.869182231769522E-9    -3.2761461320320867E-9   -5.4659002466589385E-9   -6.371203877429366E-9    -3.749085431375385E-9    -1.2085574026468301E-9   -1.0778117831071446E-9   -1.2742268079465654E-9   -7.72637097066427E-10    -8.33073292614E-11       2.609401446666104E-9
3.7999999999999995E-5     -3.2371188899047546E-9   -3.6246321775374568E-9   -5.632140864381705E-9    -6.4699561041984175E-9   -4.01318439774848E-9     -1.3105353809362491E-9   -1.0915157196451634E-9   -1.3599255529299605E-9   -9.490852333914487E-10   -2.0828648551852136E-10  3.0734172191163796E-9
3.85E-5                   -3.5488662858863E-9      -3.9031799311487984E-9   -5.60934424944954E-9     -6.3296898482317706E-9   -4.173208506132348E-9    -1.3811121605883017E-9   -1.0615691513586932E-9   -1.4001787522560154E-9   -1.1201111376384383E-9   -3.575028849306835E-10   3.5076404985505184E-9
3.9E-5                    -3.780571194024508E-9    -4.079889898946007E-9    -5.359315627973811E-9    -5.914123687892713E-9    -4.200643896598482E-9    -1.417223556245024E-9    -9.837636446192383E-10   -1.3852489661428304E-9   -1.2776132779887263E-9   -5.291367634014042E-10   3.889495613648795E-9
3.95E-5                   -3.909219387179231E-9    -4.126045082061317E-9    -4.845979574140147E-9    -5.192613108175263E-9    -4.069654510976547E-9    -1.416753260048454E-9    -8.553367814977109E-10   -1.3082582173186909E-9   -1.4127938896176167E-9   -7.175284877313334E-10   4.1936353074320505E-9
3.9999999999999996E-5     -3.912944217931422E-9    -4.020261593372975E-9    -4.04233536330036E-9     -4.139220851899897E-9    -3.759524634966988E-9    -1.3760143835420618E-9   -6.751136981254646E-10   -1.1644578867539537E-9   -1.5161044198332344E-9   -9.144565541792308E-10   4.391460345275454E-9
4.0499999999999995E-5     -3.770537951258769E-9    -3.744968600919732E-9    -2.9334587207526686E-9   -2.7337038646584848E-9   -3.252696445289633E-9    -1.2899878596999977E-9   -4.4378717450591944E-10  -9.495024906684784E-10   -1.5778245802525727E-9   -1.1108988721106494E-9   4.452711414021156E-9
4.1E-5                    -3.460890924565358E-9    -3.280837871702311E-9    -1.5142088409114561E-9   -9.65846632874335E-10    -2.532219665938677E-9    -1.1544906045433575E-9   -1.6378324329278512E-10  -6.592243300170126E-10   -1.5885256214192926E-9   -1.29791095266724E-9     4.348406211284123E-9
4.15E-5                   -2.9638402099728568E-9   -2.607279404943653E-9    2.1289810963960745E-10   1.1587503144774998E-9    -1.583544335419426E-9    -9.676215271560019E-10   1.6068485728629772E-10   -2.91673426771228E-10    -1.5389598325698894E-9   -1.4665590772328188E-9   4.053111702508333E-9
4.2E-5                    -2.263110031702159E-9    -1.7093528420382387E-9   2.234726878759694E-9     3.6147586706238854E-9    -4.007229430122963E-10   -7.293660211448956E-10   5.228787733729932E-10    1.5060333516189946E-10   -1.4199583785907507E-9   -1.6077915183807696E-9   3.545709418296339E-9
4.2499999999999996E-5     -1.3498438174466126E-9   -5.838641660564491E-10   4.5215854639292146E-9    6.356769793055849E-9     1.0079146114952726E-9    -4.4044548943836125E-10  9.127829478459387E-10    6.601794939754167E-10    -1.2229925007432866E-9   -1.712712680324629E-9    2.809635479411961E-9
4.2999999999999995E-5     -2.2443643053003366E-10  7.60647832740831E-10     7.024469353189322E-9     9.321381329449362E-9     2.6191979321514164E-9    -1.0188346462588577E-10  1.3174387187578928E-9    1.2258640208328814E-9    -9.411732611040922E-10   -1.772760489252414E-9    1.8339075044209182E-9
4.35E-5                   1.1036763430206069E-9    2.3074836002976526E-9    9.677668035569965E-9     1.2429459300912508E-8    4.399166561386095E-9     2.843976332922201E-10    1.7226769774904969E-9    1.8331627192391618E-9    -5.700867305739434E-10   -1.7791559202880329E-9   6.150830986625922E-10
4.4E-5                    2.6165524322139223E-9    4.033003622570078E-9     1.2402534337103652E-8    1.5587214943492025E-8    6.307078301032263E-9     7.147582209827765E-10    2.1152346211871583E-9    2.4631597394867126E-9    -1.0842740469590101E-10  -1.7219038707703284E-9   -8.407669712761357E-10
4.45E-5                   4.287392406728854E-9     5.904028410677847E-9     1.510771795228542E-8     1.8686091054568617E-8    8.295748352570079E-9     1.1836126963632018E-9    2.4832720133700934E-9    3.091490401304839E-9     4.411652046145319E-10    -1.5895245761070122E-9   -2.5168306400205987E-9
4.4999999999999996E-5     6.079817325168929E-9     7.87523662179939E-9      1.7686878155088095E-8    2.1602455251301768E-8    1.030898148091038E-8     1.6836276589087304E-9    2.8141162401729622E-9    3.6896361439692943E-9    1.0710746382664289E-9    -1.3705023460375512E-9   -4.384924479573736E-9
4.5499999999999995E-5     7.947535192797264E-9     9.889623300778998E-9     2.0019341722667006E-8    2.4198830413951284E-8    1.2279447058206975E-8    2.2056418172728075E-9    3.091053728929204E-9     4.228186763925911E-9     1.768091214768684E-9     -1.0560873223912618E-9   -6.404892313511291E-9
4.6E-5                    9.83429346697273E-9      1.1880504655727236E-8    2.1976758043114928E-8    2.6328187647039458E-8    1.4129119528914089E-8    2.7384546317556986E-9    3.2931573440278567E-9    4.679019146148162E-9     2.51366814387975E-9      -6.426899743642558E-10   -8.52395737899041E-9
4.65E-5                   1.1674023871342918E-8    1.377228805224943E-8     2.3432514907796172E-8    2.784111539273E-8        1.5772026890282002E-8    3.269530748975643E-9     3.399779621611326E-9     5.01439535072345E-9      3.2847537319790488E-9    -1.3215242779939682E-10  -1.0676583564625717E-8
4.7E-5                    1.3391843294291641E-8    1.548066477608804E-8     2.4268120823901445E-8    2.8593838289616108E-8    1.7118269039522588E-8    3.786743460375977E-9     3.396293690752905E-9     5.2050193096678095E-9    4.054526544178423E-9     4.700064790926077E-10    -1.27853625115775E-8
4.7499999999999996E-5     1.4906627109103448E-8    1.691526541426729E-8     2.4374889252752057E-8    2.845509201379662E-8     1.8078623272013608E-8    4.279612445306628E-9     3.2762249691271674E-9    5.220875043000983E-9     4.792749162605984E-9     1.1563397850199515E-9    -1.4762952746760576E-8
4.8E-5                    1.6135037429573104E-8    1.7985315806233173E-8    2.365498641434729E-8     2.7311578862587577E-8    1.856897471861132E-8     4.738849180957033E-9     3.0391361566372455E-9    5.0355739096402336E-9    5.465967860412344E-9     1.9172662680875415E-9    -1.6514830410162627E-8
4.85E-5                   1.69958806778756E-8      1.8605035129753663E-8    2.202643317254475E-8     2.5073084817557695E-8    1.851359887523792E-8     5.155130662945067E-9     2.6880112820454076E-9    4.630971242985755E-9     6.037850479972514E-9     2.7390988582686556E-9    -1.794263217651388E-8