% Model:              Untitled.mph
% Version:            COMSOL 6.0.0.405
% Date:               Jul 17 2025, 06:40
% Dimension:          1
% Nodes:              401
% Expressions:        11
% Description:        Point graph
% Time (s)                Displacement field, Y component Displacement field, Y component Displacement field, Y component Displacement field, Y component Displacement field, Y component Displacement field, Y component Displacement field, Y component Displacement field, Y component Displacement field, Y component Displacement field, Y component Displacement field, Y component
0                         -1.70666125888467E-33    -3.200111835704739E-32   -2.5705755435385353E-33  -3.733353194427575E-33   -1.5829385661021759E-35  -2.8063426566854526E-37  2.739252200568915E-32    1.0601679076588543E-33   1.5274385437954648E-34   6.319169798564692E-35    1.2436124740031466E-37
5.0E-7                    2.4556079043332983E-25   4.6666954607891286E-24   3.7439733894449734E-25   5.438381126611938E-25    2.196087474506683E-27    3.900814184480222E-29    -3.3615778235081066E-24  -1.5528004492175864E-25  -2.2102217673491921E-26  -8.826656827749649E-27   -1.6553542572553686E-29
1.0E-6                    -3.2269430254142975E-25  -6.034025030608092E-24   -5.8247603967694345E-25  -7.834455419543221E-25   -2.198065916861791E-27   -4.241659088911572E-29   -9.29326226238741E-24    2.248061927777915E-25    3.038770466439384E-26    1.0526805646456122E-26   1.2304945091232369E-29
1.5E-6                    -3.5182247812625373E-26  6.610446892427542E-24    8.647249395888172E-25    2.3448243923533808E-25   -2.6249042211164117E-27  -4.442981436455196E-29   4.321016162369386E-23    -1.8655292486862266E-25  -3.037195379952771E-26   -6.014408888890982E-27   3.746236015278454E-30
2.0E-6                    9.875009650696866E-25    -2.834936669385998E-23   -1.9138780100141563E-25  4.506669302267562E-24    2.0160391254074938E-26   3.767419226017743E-28    -8.67225821276023E-23    8.0907847433579125E-25   4.242018421421768E-26    -3.1380170816450795E-26  5.466700789577636E-29
2.4999999999999998E-6     -4.0237342267209135E-24  -3.157582342104109E-23   -6.589727341166713E-24   -1.6830496696842226E-23  -5.190859869481169E-26   -5.707300749058802E-28   3.159541266306254E-22    8.104783741059569E-25    -1.174566546137349E-25   2.0781574780251354E-25   1.7453293538977835E-29
3.0E-6                    5.054711182304094E-24    1.447329957972494E-22    3.1561457170039496E-23   1.4192050538376126E-23   6.742004277856419E-26    -6.643515724991812E-28   -2.9888242878160967E-22  4.4500694060921685E-24   1.763048589062147E-25    -5.405098153498926E-25   -1.943695453869685E-27
3.5E-6                    -2.4881623664110704E-23  -5.973345298839671E-22   -2.304548018534691E-23   2.521159586005667E-23    -7.929657686751771E-26   -1.2999130205370846E-27  1.9101149478522225E-22   5.234719645522129E-23    8.2000424983550485E-25   3.9668577832944482E-25   6.099327675342071E-27
4.0E-6                    -7.059814399858638E-23   3.4501288056575335E-22   -1.2238148299341528E-22  -4.353051180266391E-24   4.3680110659638664E-26   1.0243249304083223E-26   2.445341156356132E-22    1.4685736893690763E-22   -2.0183199039835297E-24  1.7716227634470594E-24   1.3790317573144723E-28
4.5E-6                    -7.730781727819708E-23   -3.361861288396323E-21   -1.4346103307466724E-22  -3.8736088517055546E-22  8.674802353489624E-25    2.7389810227651953E-27   5.537533176063124E-21    4.816277349805872E-22    1.4701548164336102E-24   -3.662053792612759E-24   -2.6254012647342676E-26
4.9999999999999996E-6     -8.270814386900371E-22   -2.046721273435329E-21   -3.784184367009621E-22   -9.221243505921042E-22   -2.047184755524205E-24   -1.9060041049628292E-26  1.9571335071158946E-20   1.5196889370674734E-21   3.027818015360459E-23    -5.247467546420726E-24   1.1373081847686804E-26
5.5E-6                    -4.326507469294949E-21   2.1283869962456938E-20   -1.1552230102279727E-21  -3.7349352136111214E-22  -9.484168945871447E-24   -2.0250471969245833E-25  -1.3562468911469195E-20  3.0568272546556287E-21   8.757427339722297E-23    6.137620328469061E-23    8.998987610827424E-26
6.0E-6                    -9.70116550788048E-21    -1.1189500795236542E-19  -3.644312085437969E-21   -1.6371279028390689E-21  1.6854618599208836E-23   -3.736736781039842E-25   1.639328139779767E-19    8.761675551681925E-21    1.4930292048230067E-22   4.111224668384854E-23    -6.188421958646536E-26
6.5E-6                    -3.166823750682422E-20   -4.90566185026783E-19    -1.8464629991027984E-20  -2.9766626258211703E-20  4.569463068158326E-23    1.6401870596239461E-24   8.35152486820192E-19     4.140971354509362E-20    6.423662040454727E-22    -2.475762263519436E-22   -8.039444392776714E-26
7.0E-6                    -1.646974072277759E-19   -6.052916657273695E-19   -7.324185962770765E-20   -1.1474173982535396E-19  -1.8662960400263248E-22  1.5047065118041436E-24   1.0419766584262918E-18   1.6597352766325204E-19   3.081499153911267E-21    7.656855263956053E-22    3.944182158477887E-25
7.499999999999999E-6      -5.691520488898742E-19   -1.5138930370916015E-18  -2.3639276109232117E-19  -1.9450495273981805E-19  -4.766431379236511E-22   -1.8678872605722107E-23  2.5298937577783803E-18   5.825784084447101E-19    9.720000280609336E-21    4.318076651906359E-21    -2.1325555505110297E-24
8.0E-6                    -1.632595691525457E-18   -8.08654301945452E-18    -8.001299188901002E-19   -4.0163289887355587E-19  1.0930787601672537E-22   -3.4488837069716905E-23  1.5119664721119944E-17   1.9138085898944383E-18   2.724977546949466E-20    5.724932746146695E-21    -3.8288241126631907E-25
8.5E-6                    -5.490186650573015E-18   -2.5534896923966678E-17  -2.7875932622492487E-18  -2.012767399074083E-18   -1.5919343868444363E-22  2.7054216683267746E-23   4.800577846077718E-17    5.7666447024531815E-18   9.388816207559083E-20    9.695632302014086E-21    2.56044447451267E-23
9.0E-6                    -1.8760571274666442E-17  -6.829731050277205E-17   -8.873664586636366E-18   -7.159168086870295E-18   -8.061395249898459E-21   -4.454532256046833E-23   1.137240586575387E-16    1.6358978726082648E-17   3.3140814375152277E-19   6.907149408719791E-20    1.3180412407913084E-23
9.499999999999999E-6      -5.694974924303298E-17   -2.0136707840672026E-16  -2.5474545545800065E-17  -1.6669019457258523E-17  -2.865403582257559E-20   -8.243937920450873E-22   2.966714078057263E-16    4.620898493765458E-17    9.82875269957852E-19     2.830406120681719E-19    -1.1362822703415126E-22
9.999999999999999E-6      -1.6652684261162226E-16  -5.847292353755732E-16   -7.084914234043704E-17   -3.5543035463871915E-17  -6.221251781491691E-20   -2.1702207803372034E-21  8.714975039309642E-16    1.3051087515103286E-16   2.6753385109881048E-18   7.557620046238469E-19    2.2616843852868105E-23
1.05E-5                   -4.938577528221634E-16   -1.5670841293058914E-15  -1.9800773563200713E-16  -9.645436700762605E-17   -1.505683877011744E-19   -3.879300496146769E-21   2.4545022155055793E-15   3.5808792758442616E-16   7.795416497791155E-18    1.88148810339443E-18     9.934911752618128E-22
1.1E-5                    -1.4257775260956423E-15  -4.107104907978577E-15   -5.367949386776924E-16   -2.804999611210191E-16   -5.293638102899416E-19   -1.2100062381433315E-20  6.336519819385137E-15    9.474160585089309E-16    2.3603527692978686E-17   5.672518403692385E-18    1.9514403817911618E-21
1.15E-5                   -3.918417388717437E-15   -1.0764036644375051E-14  -1.3850685298081361E-15  -7.073264066515618E-16   -1.8200571017697693E-18  -4.555285563709965E-20   1.550028576058877E-14    2.440533894735415E-15    6.695166132165042E-17    1.805187318628583E-17    1.6570443003706607E-21
1.2E-5                    -1.039546275262828E-14   -2.72706357852468E-14    -3.47151252809295E-15    -1.5830925360820927E-15  -5.099368812906905E-18   -1.3874737615597648E-19  3.722522953835921E-14    6.1391769304477285E-15   1.7609421541638945E-16   5.127082215656833E-17    6.804410952542536E-21
1.2499999999999999E-5     -2.6831842079040036E-14  -6.557589483508093E-14   -8.53821135765681E-15    -3.5202845810298875E-15  -1.2793200050044085E-17  -3.7746281447004035E-19  8.779889648847946E-14    1.4998801556769763E-14   4.5171942560387E-16      1.3240538926244418E-16   4.0933410049225053E-20
1.3E-5                    -6.693480395915159E-14   -1.5164109493146794E-13  -2.0354563963620943E-14  -8.16253352443996E-15    -3.359419307649918E-17   -1.0348170665389111E-18  1.995598674905893E-13    3.545344931692435E-14    1.1614574184921825E-15   3.386783278445524E-16    1.3903288499417236E-19
1.35E-5                   -1.602678747828282E-13   -3.41679399694471E-13    -4.679627787224266E-14   -1.8813826105216384E-14  -9.318418849430421E-17   -2.915503125605464E-18   4.3310794250548524E-13   8.118007828187348E-14    2.938956277977912E-15    8.797205408126733E-16    3.539415360730069E-19
1.4E-5                    -3.6728497666000424E-13  -7.445193983267332E-13   -1.0480999719005837E-13  -4.1174412297705494E-14  -2.48300963791378E-16    -8.184881093517057E-18   8.986365625632282E-13    1.80493290938198E-13     7.157406726685394E-15    2.2311352311660448E-15   9.071638318738132E-19
1.45E-5                   -8.041309907464802E-13   -1.542738123776344E-12   -2.302521650430533E-13   -8.562213967370017E-14   -6.172391081828626E-16   -2.2317668613393634E-17  1.783262190196642E-12    3.8908213763877007E-13   1.6761091398967758E-14   5.382263583173276E-15    2.6499053705828692E-18
1.4999999999999999E-5     -1.6776067854894726E-12  -3.0181718224143676E-12  -4.930401707550919E-13   -1.7282534754645967E-13  -1.4868583986913898E-15  -5.878572263774583E-17   3.3787851768447756E-12   8.081348964189908E-13    3.810708557709506E-14    1.2455379518552876E-14   7.836702544096248E-18
1.55E-5                   -3.3215622027326157E-12  -5.5937701803685544E-12  -1.0180530999746362E-12  -3.417786700105462E-13   -3.5773795668797954E-15  -1.5110056415248773E-16  6.107815898468959E-12    1.605964096012319E-12    8.445109934551519E-14    2.809244198850056E-14    2.1430606878419462E-17
1.6E-5                    -6.2057239124960695E-12  -9.824444268431805E-12   -2.0153577323857643E-12  -6.562932466742963E-13   -8.506841570927616E-15   -3.821700631332795E-16   1.0498040541510168E-11   3.040570202167631E-12    1.8169903170134377E-13   6.181865586426186E-14    5.498542342128793E-17
1.6499999999999998E-5     -1.0872645658541308E-11  -1.6151227863357797E-11  -3.819321306556671E-12   -1.2116376010103398E-12  -1.9583006049880046E-14  -9.4747636460255E-16     1.6963870868492416E-11   5.468343182451636E-12    3.771726257486883E-13    1.3141091354552965E-13   1.383656399718277E-16
1.7E-5                    -1.777830480320444E-11   -2.4375655125560705E-11  -6.90378349912193E-12    -2.1611023694803444E-12  -4.3470165972931025E-14  -2.2834248082994958E-15  2.5352874015028725E-11   9.279840464619257E-12    7.514386181322587E-13    2.6804933022330515E-13   3.464736983415569E-16
1.75E-5                   -2.7056315735635552E-11  -3.331006876329803E-11   -1.1778038424667993E-11  -3.784221718466676E-12   -9.365794187231459E-14   -5.333470441505267E-15   3.4631518433903256E-11   1.4669851878583003E-11   1.4299012614244523E-12   5.250858404198287E-13    8.4971208476033575E-16
1.8E-5                    -3.8254961600286016E-11  -4.1235933490891655E-11  -1.8653046431050476E-11  -6.550585469132312E-12   -1.962883991936252E-13   -1.2088082146627678E-14  4.330553292473369E-11    2.1263639682704277E-11   2.5845266312962894E-12   9.897063776212374E-13    2.0105649071087995E-15
1.85E-5                   -5.014799615926243E-11   -4.6954255700844565E-11  -2.694005717089755E-11   -1.1023082772499676E-11  -3.980869130383404E-13   -2.6574591897492455E-14  5.047859086147034E-11    2.7912767492703396E-11   4.4073757166941895E-12   1.7889359175042681E-12   4.586519151324397E-15
1.8999999999999998E-5     -6.083929324781635E-11   -5.0191763753637406E-11  -3.498249540426692E-11   -1.748354042173315E-11   -7.758495075157672E-13   -5.648375485163205E-14   5.6341344385395755E-11   3.3091972524708735E-11   7.030267399323694E-12    3.0774597317142605E-12   1.0143775893958086E-14
1.95E-5                   -6.834739035799426E-11   -5.073506042645722E-11   -4.0525462637640536E-11  -2.547869362500315E-11   -1.4457934212500342E-12  -1.1566574269566543E-13  6.109053940288638E-11    3.5830937902724335E-11   1.0380854595752867E-11   5.002750231376377E-12    2.1796531963350704E-14
1.9999999999999998E-5     -7.13719834179062E-11    -4.758791354447322E-11   -4.1874326996710164E-11  -3.375478323932624E-11   -2.565944008538089E-12   -2.2763922317372923E-13  6.328433353908768E-11    3.630529651334254E-11    1.403735257983E-11       7.644577574567393E-12    4.5360746356078945E-14
2.05E-5                   -6.942240406021231E-11   -3.972503592471535E-11   -3.883103805023994E-11   -4.0751396200776263E-11  -4.3172217462523095E-12  -4.294087134220167E-13   5.99602477542362E-11     3.52196024607202E-11     1.723491943229629E-11    1.0905140404872643E-11   9.099361510160713E-14
2.1E-5                    -6.196389628838403E-11   -2.7535939980108104E-11  -3.2405297784673527E-11  -4.51448623684373E-11    -6.846189922880056E-12   -7.730939601428326E-13   4.895633113328495E-11    3.241843250038073E-11    1.9130755543055435E-11   1.4346464289455071E-11   1.7536355009506062E-13
2.1499999999999997E-5     -4.7639921043693195E-11  -1.2414681664665055E-11  -2.3445348464605317E-11  -4.5840376884333976E-11  -1.0159189296056797E-11  -1.3216268604349825E-12  3.065803115934175E-11    2.6361417140413066E-11   1.9170698816027396E-11   1.7110618812733064E-11   3.24167018603371E-13
2.2E-5                    -2.4970896460175906E-11  5.6318380044712024E-12   -1.1598753486130776E-11  -4.1619829060501094E-11  -1.3979435129209846E-11  -2.1356053610953918E-12  6.54223751113728E-12     1.535284662392933E-11    1.7187722438242416E-11   1.816324936056426E-11    5.74004431004595E-13
2.2499999999999998E-5     6.0384365086872575E-12   2.925593868746142E-11    4.21774461782308E-12     -3.1218946391332894E-11  -1.762942282641074E-11   -3.2493380209279074E-12  -2.4020949397526268E-11  -7.766069506847828E-13   1.3110465351750566E-11   1.6847164727455495E-11   9.710397339959187E-13
2.3E-5                    4.38688352260269E-11     6.211109127867228E-11    2.4407065638394078E-11   -1.3996879043657315E-11  -2.0062198859205296E-11  -4.633096121139792E-12   -6.458072332648292E-11   -2.069090478400139E-11   6.707209172551155E-12    1.3236329584753984E-11   1.5624632862102688E-12
2.35E-5                   8.795953762570776E-11    1.0644859922881184E-10   4.818143299764536E-11    9.545565268719425E-12    -2.013809450796144E-11   -6.144591918932582E-12   -1.185808296730427E-10   -4.3479301208564097E-11  -2.165110996938219E-12   7.804718930678101E-12    2.3780700558285277E-12
2.4E-5                    1.4081593592386905E-10   1.62402568124715E-10     7.478940824458831E-11    3.80208410059687E-11     -1.7054982909511197E-11  -7.499857739988357E-12   -1.8576592426094293E-10  -7.021791287840685E-11   -1.3086508454675192E-11  7.663154505133725E-13    3.4044606001881417E-12
2.45E-5                   2.0638265227703444E-10   2.2818080555872982E-10   1.049826567728603E-10    6.99652844761584E-11     -1.0645053727132165E-11  -8.323156321900188E-12   -2.6210385874615124E-10  -1.031608585220923E-10   -2.5187095403614116E-11  -8.009655252291952E-12   4.559908855068336E-12
2.4999999999999998E-5     2.858813206833841E-10    3.000226343618984E-10    1.40644047629414E-10     1.0456312566049175E-10   -1.3359233744901192E-12  -8.30211420801745E-12    -3.4332950588293673E-10  -1.4339096809212442E-10  -3.7967717812303775E-11  -1.843114824138132E-11   5.6797866491359546E-12
2.55E-5                   3.7601587654261464E-10   3.7326010449387725E-10   1.8273736435518343E-10   1.4175106543657447E-10   1.0098881886057666E-11   -7.353990906884284E-12   -4.2806745555398807E-10  -1.894825513624877E-10   -5.18232870468974E-11    -3.000815252537272E-11   6.524276359128073E-12
2.6E-5                    4.715947766221794E-10    4.448700619243774E-10    2.297996705401909E-10    1.8148786834381981E-10   2.2752692965542214E-11   -5.625314943161298E-12   -5.168696674327294E-10   -2.3826328831715955E-10  -6.746042124046603E-11   -4.256541394948968E-11   6.825011435913593E-12
2.65E-5                   5.688290728888162E-10    5.143587546920669E-10    2.7827293146058004E-10   2.227085107030901E-10    3.577737534176574E-11    -3.2714263046182077E-12  -6.08334429935954E-10    -2.8644593962458986E-10  -8.486923184944267E-11   -5.6739325278965577E-11  6.377829125132109E-12
2.7E-5                    6.651617981181661E-10    5.810476373226818E-10    3.2384443485176473E-10   2.631903138804537E-10    4.8718184473239715E-11   -2.2629560215545785E-13  -6.972167451062719E-10   -3.317144344711149E-10   -1.0313672969406601E-10  -7.320860619330169E-11   5.143699381725105E-12
2.7499999999999998E-5     7.568750711665829E-10    6.40992882668434E-10     3.627426830300493E-10    3.008426030415924E-10    6.180503485471378E-11    3.768433944083474E-12    -7.767898857919456E-10   -3.7302949755426324E-10  -1.2117844358913442E-10  -9.150962432991805E-11   3.2707336490798333E-12
2.8E-5                    8.384722592437233E-10    6.873275520082033E-10    3.9276906425033226E-10   3.3504944269553825E-10   7.571697217729407E-11    8.915039587267056E-12    -8.416300952681446E-10   -4.1014299678118455E-10  -1.3823671910349043E-10  -1.0999029086089063E-10  9.777778932059297E-13
2.8499999999999998E-5     9.039308958438607E-10    7.130414168833313E-10    4.1350688382172287E-10   3.662073375539998E-10    9.079548164581905E-11    1.522805865906893E-11    -8.864266649159552E-10   -4.4212816034776687E-10  -1.535799116873491E-10   -1.267938187584265E-10   -1.6411868082470464E-12
2.9E-5                    9.46355815859772E-10     7.127897879501697E-10    4.2494712451093513E-10   3.9358086604388966E-10   1.0642589373032164E-10   2.2676478492667405E-11   -9.02860757115067E-10    -4.658083917126963E-10   -1.6613922445984444E-10  -1.4052095035003633E-10  -4.743100117217755E-12
2.95E-5                   9.557891170241244E-10    6.824842762492131E-10    4.254112039589467E-10    4.135733669677937E-10    1.212330949922117E-10    3.131885318292647E-11    -8.801109027290079E-10   -4.758096420993488E-10   -1.7468735928344068E-10  -1.5020551004670393E-10  -8.69875023445447E-12
2.9999999999999997E-5     9.195887850403595E-10    6.176177074794618E-10    4.107125978282307E-10    4.200021343544581E-10    1.3384644607817814E-10   4.1135345368156074E-11   -8.090429959092823E-10   -4.663503921195619E-10   -1.7801425628573257E-10  -1.5529341756893618E-10  -1.3933160929835414E-11
3.05E-5                   8.270991933657675E-10    5.118183582058422E-10    3.749088046096977E-10    4.059018525275903E-10    1.434211375508183E-10    5.174575809110967E-11    -6.841723740068346E-10   -4.328095028679699E-10   -1.7454833312232716E-10  -1.5562717269286078E-10  -2.0737834010163262E-11
3.1E-5                    6.733636897245939E-10    3.57270567678972E-10     3.116210081733653E-10    3.6529271041781757E-10   1.494604051102358E-10    6.244050361041436E-11    -5.00826497560809E-10    -3.7185304178018554E-10  -1.6204312240453647E-10  -1.5079667752923998E-10  -2.911213169593337E-11
3.15E-5                   4.565730490946275E-10    1.4747724516927235E-10   2.1583329706257154E-10   2.940180428347946E-10    1.5119312193112354E-10   7.253198010295784E-11    -2.523115868570922E-10   -2.8102627025664947E-10  -1.3813596979907102E-10  -1.3922639363907736E-10  -3.868846079663547E-11
3.2E-5                    1.7226794986878755E-10   -1.1980340451939024E-10  8.612065726026329E-11    1.898949123090865E-10    1.4711801031899389E-10   8.158512071649417E-11    6.836963085823857E-11    -1.5870042898536277E-10  -1.0129437856381931E-10  -1.182334205321373E-10   -4.88273126629826E-11
3.25E-5                   -1.875843020152941E-10   -4.4238790810555085E-10  -7.494371718898277E-11   5.2641673440289294E-11   1.3516164602731555E-10   8.927674063102924E-11    4.645473211822482E-10    -3.8912386964711586E-12  -5.100700960796438E-11   -8.524153843596202E-11   -5.887930243573722E-11
3.2999999999999996E-5     -6.283879594958287E-10   -8.163812797379974E-10   -2.639528048052255E-10   -1.165640088282452E-10   1.133488245556152E-10    9.511311051789447E-11    9.343574990048065E-10    1.842228030779487E-10    1.285418280415327E-11    -3.890762636599109E-11   -6.840860021687284E-11
3.35E-5                   -1.146662970198051E-9    -1.2385869480588561E-9   -4.802555265654824E-10   -3.161184272408427E-10   8.03693430948188E-11     9.82897117721799E-11     1.471785401936473E-9     4.060293098245755E-10    9.047282698041191E-11    2.0811325656779367E-11   -7.713065782253154E-11
3.4E-5                    -1.7310353457297589E-9   -1.7054638043442051E-9   -7.248588855340192E-10   -5.448128038658022E-10   3.554402394729963E-11    9.769303827971835E-11    2.0672016657580754E-9    6.600678494743979E-10    1.8174239103693362E-10   9.33036589388802E-11     -8.459269680263477E-11
3.45E-5                   -2.3682991427311796E-9   -2.209097152119848E-9    -9.95218665358004E-10    -8.011004302511791E-10   -2.1606592050680607E-11  9.19766456580474E-11     2.7064666262835136E-9    9.418615367533603E-10    2.856329997338265E-10    1.7775841421347202E-10   -8.993467552248391E-11
3.5E-5                    -3.0457762396893246E-9   -2.734104863902135E-9    -1.282314030657308E-9    -1.0809104307262007E-9   -9.157869105642728E-11   7.976874813155867E-11    3.370068647731475E-9     1.2443212750203957E-9    3.999076141294625E-10    2.730333014418908E-10    -9.200705358750864E-11
3.5499999999999996E-5     -3.746598540698051E-9    -3.258419455656192E-9    -1.5735227531437187E-9   -1.3760064905200794E-9   -1.745980211884722E-10   5.998007587488855E-11    4.0330896134749765E-9    1.5591525989287649E-9    5.211510553598973E-10    3.772302769243626E-10    -8.972970903984551E-11
3.6E-5                    -4.44425102067934E-9     -3.756408146122358E-9    -1.8572659371212097E-9   -1.6744586017967798E-9   -2.70021730176272E-10    3.19861347339268E-11     4.665840784374691E-9     1.8775880483988643E-9    6.447795062716517E-10    4.874832701958545E-10    -8.232281014699136E-11
3.65E-5                   -5.102824814658244E-9    -4.200788843451104E-9    -2.1238072591131343E-9   -1.9623496891500848E-9   -3.7579126319135527E-10  -4.4365017195553596E-12  5.235117927107108E-9     2.1896326183573245E-9    7.650799900671614E-10    6.000485963138642E-10    -6.921380867135772E-11
3.7E-5                    -5.681151556334932E-9    -4.562568082621629E-9    -2.3622216813088423E-9   -2.2246586956751776E-9   -4.8833652185163E-10     -4.9269838159650755E-11  5.705339761077727E-9     2.4825994223836355E-9    8.756071859056508E-10    7.102503116458906E-10    -4.9780972553756876E-11
3.75E-5                   -6.136061258393131E-9    -4.811001542055966E-9    -2.5578447827649733E-9   -2.4448733168239705E-9   -6.031698452806356E-10   -1.0235251358870428E-10  6.038392028811125E-9     2.740371757580738E-9     9.699095739158662E-10    8.120406710630819E-10    -2.3224410984903865E-11
3.7999999999999995E-5     -6.424858732938387E-9    -4.9147707278735235E-9   -2.692662000727812E-9    -2.6049130229519004E-9   -7.157343510613331E-10   -1.6341429330032183E-10  6.193189487849981E-9     2.944085115236938E-9     1.0420239670064807E-9    8.978181486639674E-10    1.1305372703283234E-11
3.85E-5                   -6.508327045956492E-9    -4.843654273789904E-9    -2.747440558195112E-9    -2.686546025758475E-9    -8.215152936328454E-10   -2.3199855731110792E-10  6.127777476818487E-9     3.073703725389331E-9     1.0862268105761217E-9    9.593239017385638E-10    5.440838475361184E-11
3.9E-5                    -6.3512406063227335E-9   -4.569761432932001E-9    -2.703914470924109E-9    -2.673260506389518E-9    -9.1507189736841E-10     -3.071274675582706E-10   5.8039165201862825E-9    3.1095086663659036E-9    1.0962259693543658E-9    9.892278413890468E-10    1.0615726294271061E-10
3.95E-5                   -5.918665575938361E-9    -4.0682222461316065E-9   -2.54669161065134E-9     -2.5506401644813065E-9   -9.890302599679283E-10   -3.8677753143035233E-10  5.190144803693854E-9     3.0329574004743648E-9    1.064623264864593E-9     9.818970250292898E-10    1.6600854749910884E-10
3.9999999999999996E-5     -5.173758319462143E-9    -3.3179279241054696E-9   -2.264473567420232E-9    -2.3050964738922984E-9   -1.0343610651139034E-9   -4.675435021962159E-10   4.261099590263481E-9     2.8270197540628307E-9    9.833939930289322E-10    9.325749129725901E-10    2.32917326052506E-10
4.0499999999999995E-5     -4.0829087086492634E-9   -2.303131622682736E-9    -1.8496021175372025E-9   -1.9230652604926593E-9   -1.041910918927687E-9    -5.448044418256324E-10   2.996293873341055E-9     2.4766240191248307E-9    8.453179827931963E-10    8.360957192185214E-10    3.0545996507006525E-10
4.1E-5                    -2.624751230968581E-9    -1.015982495720984E-9    -1.2965203566644744E-9   -1.3925792661107248E-9   -1.003839891665369E-9    -6.13327079758266E-10    1.382444319497174E-9     1.970025115120679E-9     6.455002681373108E-10    6.868550459794359E-10    3.817358443050304E-10
4.15E-5                   -7.951205002023326E-10   5.409361025875636E-10    -6.018362619995388E-10   -7.067495890304626E-10   -9.13931929636861E-10    -6.679492918785024E-10   -5.810412060551501E-10   1.3010667741725292E-9    3.821657337221842E-10    4.802560956608417E-10    4.590730575848069E-10
4.2E-5                    1.3934930725659613E-9    2.352708773708702E-9     2.3266091911648496E-10   1.3303424343672105E-10   -7.671623983531234E-10   -7.039288480305074E-10   -2.8769482868705364E-9   4.708531182524938E-10    5.6725538326360424E-11   2.1427565724793966E-10   5.338345372098681E-10
4.2499999999999996E-5     3.9131332397481744E-9    4.390561137424793E-9     1.1964966298192898E-9    1.1158259352872933E-9    -5.596606977637563E-10   -7.167410943308327E-10   -5.467925005608917E-9    -5.126428712810106E-10   -3.2632321216928555E-10  -1.0991355295494642E-10  6.015643994086575E-10
4.2999999999999995E-5     6.719347274347443E-9     6.6108057735083445E-9    2.2698859776393855E-9    2.2216861430601937E-9    -2.89524635149772E-10    -7.016092376005403E-10   -8.297135059024118E-9    -1.6362801349855294E-9   -7.593657068133962E-10   -4.879670229340565E-10   6.573890428003023E-10
4.35E-5                   9.749513444134612E-9     8.955249262581696E-9     3.426026386944652E-9     3.4228905587977715E-9    4.217392589068317E-11    -6.534598974409041E-10   -1.1290638364769247E-8   -2.882252049711095E-9    -1.2316444655886962E-9   -9.123161024772316E-10   6.963652696287639E-10
4.4E-5                    1.292227318723816E-8     1.1353215199942597E-8    4.633616869382605E-9     4.684654109294326E-9     4.3102420689074524E-10   -5.676379345114003E-10   -1.4359149450041657E-8   -4.226294347181222E-9    -1.7293392087342399E-9   -1.3719890600073219E-9   7.13558918000685E-10
4.45E-5                   1.613784063386993E-8     1.372351856845209E-8     5.857807398346655E-9     5.96514250004667E-9      8.695688343136293E-10    -4.407961490015315E-10   -1.7397632894508025E-8   -5.635511779007505E-9    -2.2357113528372174E-9   -1.8526169572476585E-9   7.039287397346723E-10
4.4999999999999996E-5     1.927895905942239E-8     1.5974927464058057E-8    7.05970645474601E-9      7.215573509840999E-9     1.3476188601800748E-9    -2.7111899071143203E-10  -2.0284575357280783E-8   -7.068381994791003E-9    -2.7314195653686414E-9   -2.3365877725706733E-9   6.623212168805045E-10
4.5499999999999995E-5     2.2213313217865E-8       1.8006273496575914E-8    8.195232815682166E-9     8.381456014709967E-9     1.8521426269221258E-9    -5.7945862092856265E-11  -2.288448974604993E-8    -8.47697946767313E-9     -3.1950864606634943E-9   -2.8031964913701265E-9   5.838252510835149E-10
4.6E-5                    2.4797583049646217E-8    1.9708910148944254E-8    9.214667048808675E-9     9.405037634223937E-9     2.3668252858902285E-9    1.982682131787406E-10    -2.505404594527301E-8    -9.809229221175227E-9    -3.6038578092870733E-9   -3.22903190746741E-9     4.6438768646792693E-10
4.65E-5                   2.688174912256763E-8     2.0971990564689805E-8    1.0064725915479074E-8    1.022776039528974E-8     2.8717152760862852E-9    4.951431302400778E-10    -2.66484270946229E-8     -1.1009843356727681E-8   -3.933796606569646E-9    -3.588910531945035E-9    3.012972229557819E-10
4.7E-5                    2.831273085981522E-8     2.168784828148769E-8     1.0693134971641362E-8    1.0791553615622801E-8    3.343436721898906E-9     8.273782442584937E-10    -2.752565311078935E-8    -1.2020926107215024E-8   -4.160569533389959E-9    -3.857147154075509E-9    9.328455638377388E-11
4.7499999999999996E-5     2.89390531030503E-8      2.1755529227156014E-8    1.1052722317194043E-8    1.1039405417059195E-8    3.756251434300433E-9     1.1865539969066427E-9    -2.7550721842034196E-8   -1.278369892060924E-8    -4.260884638636904E-9    -4.008671538265431E-9    -1.595608450810876E-10
4.8E-5                    2.8619029892828444E-8    2.1084199778774343E-8    1.1102457483051208E-8    1.0917110661699066E-8    4.083711979704068E-9     1.5617744352666943E-9    -2.6602422460450294E-8   -1.3241152838167644E-8   -4.214238130734733E-9    -4.01993781585222E-9     -4.556368028799651E-10
4.85E-5                   2.7231834534869875E-8    1.9598703289789202E-8    1.0806682894287693E-8    1.0377487967113824E-8    4.300163982087423E-9     1.9402636019436143E-9    -2.4582599138069643E-8   -1.3340473774970454E-8   -4.004106226828859E-9    -3.870064773139934E-9    -7.91292890706872E-10