% Model:              Untitled.mph
% Version:            COMSOL 6.0.0.405
% Date:               Jul 17 2025, 06:40
% Dimension:          1
% Nodes:              401
% Expressions:        11
% Description:        Point graph
% Time (s)                Displacement field, Y component Displacement field, Y component Displacement field, Y component Displacement field, Y component Displacement field, Y component Displacement field, Y component Displacement field, Y component Displacement field, Y component Displacement field, Y component Displacement field, Y component Displacement field, Y component
0                         2.5514114667456657E-33   1.1523370362272201E-31   2.776885612831187E-32    3.519351052545224E-32    1.4942923755042238E-33   8.649599448396183E-35    -1.2969365218891086E-31  -4.357934527842612E-33   -3.1105517109582275E-33  -5.681489176246246E-33   -1.0439752190612947E-34
5.0E-7                    -3.3545402456958514E-25  -1.6228029840674654E-23  -3.793817927041725E-24   -5.8822783401308514E-24  3.3489138562414566E-26   -1.2979660436041798E-26  4.921645333779905E-24    8.227376801573927E-25    2.8839886919880784E-25   4.0572457535364466E-25   -1.0879235894979105E-26
1.0E-6                    -1.0367090735618885E-25  3.414268886727098E-23    1.8319521581307942E-24   1.6272807672580543E-23   -2.3740709559917784E-24  3.9052408230198496E-26   7.790942293509307E-23    -3.278132484448275E-24   2.0365798069695178E-25   3.370033194973044E-24    2.3856650224342095E-25
1.5E-6                    3.8592442910468346E-24   -3.3483207177444095E-23  2.0630520938956748E-23   8.807081024393529E-24    1.0406634724558447E-23   9.690057190238193E-26    -7.686113163774843E-22   -8.198567166870934E-24   -2.251611812875937E-24   -1.9422875682264916E-23  -8.731055627616904E-25
2.0E-6                    -2.36705471342276E-23    -2.6481168925706433E-22  4.668591636257755E-23    -1.2145749500946002E-22  -1.176679902832408E-24   -9.986980696055156E-25   4.1099531175844055E-21   -6.484592928088635E-23   -3.97600169687595E-24    2.17167769552924E-23     5.339849489481374E-25
2.4999999999999998E-6     9.896030988024085E-23    8.027198678574544E-22    -1.7984361369602172E-22  3.4303420509600885E-22   -9.448636512544209E-23   8.696117260543885E-25    -5.305124843186227E-21   5.484168249164719E-23    2.6361316597153247E-23   6.912336054952445E-23    3.033920689077454E-24
3.0E-6                    -1.6037269777282707E-22  1.2639642141132513E-21   -3.2735399378187033E-22  -1.2212321430325095E-21  9.46479793764984E-23     2.4406592356766774E-24   -2.3261164921089937E-20  5.649475461449307E-22    -3.9445728169668403E-23  -4.0071238903605865E-24  -1.5900372591258243E-24
3.5E-6                    -4.345203627607981E-22   1.873619646415889E-21    3.822836010564169E-21    5.521991746073266E-21    8.937459386279108E-22    1.48430496336617E-23     2.842950733201448E-20    -1.8225484628400621E-22  -5.042799292071934E-22   -1.5627905680910395E-21  -1.4548544397810867E-23
4.0E-6                    2.0944887646965068E-21   -2.9761512795817314E-20  -3.502563044064442E-21   7.67864266383366E-21     -1.412140254124344E-21   3.896669833479723E-24    1.8695505419732726E-19   -5.1473632398813184E-21  -3.891433962705245E-22   8.679605862430489E-22    -1.1336079691024059E-24
4.5E-6                    1.239255177222072E-21    -2.9074053645140782E-21  -1.5619618858089278E-21  -3.666709799592939E-20   -5.3929851570228066E-21  -2.300077385869632E-22   -1.1264320657541032E-19  -9.994733774411172E-21   6.836838063500001E-22    1.0624990100620626E-20   4.000340734948853E-23
4.9999999999999996E-6     -1.4178132270265267E-20  2.674777757002021E-19    6.2603003944679E-20      1.0243733935333764E-20   1.2816532330801051E-20   -1.5380505389228169E-22  -1.4372111572519197E-18  2.1101961461454176E-20   -4.827748525073095E-21   -1.7933374646422365E-20  9.280017003336112E-23
5.5E-6                    3.589614141526072E-21    1.5583539442441506E-19   1.1893817133810717E-20   3.3773228982888577E-19   3.3096749665580075E-20   2.2111942146792203E-21   3.9456023046808614E-19   8.953091479890572E-20    -3.2675739038828467E-20  -8.991713046915982E-20   9.36271912265203E-23
6.0E-6                    1.0877021043592702E-19   -1.0634603104224963E-18  -1.602468033603295E-19   3.486366499356395E-19    -6.215431987619892E-20   2.696477845662674E-21    7.706726891512893E-18    -1.425022054091326E-19   -7.857063345022444E-20   8.697611924364714E-21    -9.568913530165062E-22
6.5E-6                    2.643292934874535E-22    -2.012482900899681E-19   9.177733231814358E-19    -5.322346195382377E-19   -1.4113122317455862E-19  -1.2690330679989366E-20  -7.724833142203184E-19   -1.1937125946448988E-18  -1.7475105653757628E-19  2.396287728065463E-19    -2.1263701206843152E-21
7.0E-6                    -4.747418439420924E-19   6.5044649389492615E-18   4.6290384112188684E-18   1.4871126770480185E-18   3.7055447188158425E-19   -1.8885599513529326E-20  -3.439295700222121E-17   -2.3706771105546143E-18  -6.4643588106846225E-19  -5.697896250962887E-19   4.78392062070555E-21
7.499999999999999E-6      5.817495593836435E-19    7.332445845531942E-18    7.05216404655219E-18     1.1014917228830231E-17   1.0231300016071009E-18   6.947812966062504E-20    -1.6765609396470243E-17  -2.6164527454446864E-18  -2.2269310538212894E-18  -3.2324514698915987E-18  1.5790916892927482E-20
8.0E-6                    3.9275606865921024E-18   -9.018023516162582E-18   6.525274509111226E-18    1.7300294424722447E-17   -4.557861774120255E-19   1.566204421424904E-19    9.566778791105904E-17    -7.73016204550962E-18    -6.403059892609913E-18   -4.812758911730695E-18   -1.541118446973009E-20
8.5E-6                    1.0812817768163144E-18   4.9724107107404315E-18   3.5588621121572746E-17   1.7317031295045047E-17   -2.437945215846072E-18   -1.5387393294024012E-19  9.477444448237613E-17    -3.4017828422452033E-17  -1.7550912857549805E-17  -4.488984935516561E-18   -9.665638471630401E-20
9.0E-6                    -8.534521082138109E-18   1.0668815311282788E-16   1.540551553958236E-16    8.669937860319525E-17    5.484399380785948E-18    -5.306292730142509E-19   -2.4811234167677E-16     -9.835154822789499E-17   -4.7507154659052346E-17  -2.279098687666904E-17   -3.9099125573987957E-20
9.499999999999999E-6      1.922055050391494E-17    2.1696880412560347E-16   3.7381167981288204E-16   3.1760576834244913E-16   2.5097877427229382E-17   8.686349807996363E-19    -6.559784948506555E-16   -2.305531414153307E-16   -1.2575555488338684E-16  -9.558118204485128E-17   3.0165437891640866E-19
9.999999999999999E-6      1.15635966562185E-16     2.9652993184627E-16      7.397164712061265E-16    6.161116847774694E-16    2.88984199515762E-17     3.988323619938208E-18    -4.600653379411302E-16   -5.567705837026142E-16   -3.196845125013252E-16   -2.1418405562624376E-16  2.7259951267697313E-19
1.05E-5                   1.7199183302873365E-16   7.769518053559657E-16    1.7264922081352732E-15   9.420481428351362E-16    1.3062852396483884E-17   3.496122385996115E-18    4.4230798620994914E-16   -1.3943779871267668E-15  -7.667179812233207E-16   -3.599732040474217E-16   -1.3312821319000062E-18
1.1E-5                    1.3995063658059427E-16   2.3446552620426427E-15   4.4781170381156235E-15   2.152562812461208E-15    1.0009871907791603E-16   -3.608995663465647E-19   2.192966731938233E-16    -3.2530761766936657E-15  -1.7584685658599659E-15  -8.155750972497598E-16   -3.735611925270171E-18
1.15E-5                   5.913800666633656E-16    5.381273005766115E-15    1.0385845329957639E-14   5.897175040916776E-15    4.667179322470561E-16    1.4766053614617167E-17   -5.0570783938280264E-15  -6.952119234461236E-15   -3.909264093565457E-15   -2.295704553793225E-15   -3.053606555758233E-18
1.2E-5                    2.54038803017568E-15     1.1045787541456438E-14   2.1014957963504777E-14   1.2597922324165742E-14   1.0800715879569257E-15   7.340572472067774E-17    -1.6601678144558755E-14  -1.4443879102704236E-14  -8.252386571410941E-15   -5.135214028908028E-15   4.2309941348166162E-19
1.2499999999999999E-5     6.11872614778488E-15     2.384265176840501E-14    4.071614080034265E-14    2.1397528529746514E-14   1.8256385925227737E-15   1.600189907333107E-16    -2.7286050349357346E-14  -3.029886920978271E-14   -1.6396755834811537E-14  -8.890734349601277E-15   -1.0458453553138195E-17
1.3E-5                    1.0987848499257371E-14   5.202457651293669E-14    8.142258764345942E-14    3.677833732929022E-14    3.358260132695309E-15    2.745982460577125E-16    -3.30428444611515E-14    -6.224115148897702E-14   -3.1911525431060196E-14  -1.549026342928625E-14   -6.610108898095701E-17
1.35E-5                   2.1416043476785472E-14   1.0487315680952897E-13   1.6273168059454018E-13   7.394289031086255E-14    7.670789758101658E-15    5.973494107588998E-16    -5.825344515159714E-14   -1.2021390448731117E-13  -6.267034974008875E-14   -3.32252994165769E-14    -1.742757499743122E-16
1.4E-5                    5.0927619598180366E-14   1.9489649105153687E-13   3.037789194228349E-13    1.4616656165830047E-13   1.7456962003536094E-14   1.4891132961715127E-15   -1.4809486199110493E-13  -2.1909490046045683E-13  -1.1911465096584463E-13  -7.126687894757019E-14   -2.9901083690115404E-16
1.45E-5                   1.1540659742821221E-13   3.536312426463622E-13    5.225271829265948E-13    2.476077662565445E-13    3.547473433688448E-14    3.2408416090680245E-15   -3.172282292082106E-13   -3.8944248199816484E-13  -2.0752928515527531E-13  -1.2754070820568702E-13  -4.738931472636673E-16
1.4999999999999999E-5     2.179079379547675E-13    6.417795389762627E-13    8.537623679982044E-13    3.878940609850496E-13    6.521788621321098E-14    6.226739750061827E-15    -5.446660954362725E-13   -6.793219267346849E-13   -3.3678480077312125E-13  -2.001501218589522E-13   -1.060503147398513E-15
1.55E-5                   3.5568021213378767E-13   1.1021352716383762E-12   1.3402361349003217E-12   6.782101603521333E-13    1.1275391251621112E-13   1.193015825883414E-14    -8.533268807575073E-13   -1.1100923969826858E-12  -5.562698330125164E-13   -3.3401983774687765E-13  -2.7938138435575896E-15
1.6E-5                    5.69620593592491E-13     1.6632126373592877E-12   1.9497186787030517E-12   1.310773982480883E-12    1.9328157922524782E-13   2.3536992242275493E-14   -1.323531365278295E-12   -1.5939995897682975E-12  -9.897900321381795E-13   -6.38623885934912E-13    -6.22992083430289E-15
1.6499999999999998E-5     9.798488751948326E-13    2.158824632880417E-12    2.556192500774787E-12    2.2967091291532235E-12   3.468401646081485E-13    4.470509583734297E-14    -1.9685354892203533E-12  -1.945780153717344E-12   -1.8037726221859849E-12  -1.2144467052045575E-12  -1.1346514778536208E-14
1.7E-5                    1.7057300665040242E-12   2.6258585285717795E-12   3.27738193434475E-12     3.2440930816681856E-12   6.491061111611452E-13    7.971948926656058E-14    -2.7607147582580156E-12  -2.176509755266126E-12   -3.1664527081775423E-12  -2.099219247697997E-12   -1.91588631663362E-14
1.75E-5                   2.7142275972106917E-12   3.683699366585984E-12    5.093485116036005E-12    3.790925739078479E-12    1.195163953102949E-12    1.4117004132493328E-13   -4.00769461066889E-12    -3.0144912863983206E-12  -5.384871145046712E-12   -3.4457729463782037E-12  -3.5195963782050415E-14
1.8E-5                    3.888745264739085E-12    6.483458387209221E-12    9.903443346480616E-12    4.703269362497958E-12    2.094490701137202E-12    2.619057295556163E-13    -6.571052907575462E-12   -6.095064416821441E-12   -9.177391611587835E-12   -5.8312600134886124E-12  -7.060693550643602E-14
1.85E-5                   5.51339568306664E-12     1.2031554258964804E-11   1.9155422491982082E-11   8.339065079294784E-12    3.58226814202702E-12     4.952079240966215E-13    -1.1292318876648413E-11  -1.3085638921357268E-11  -1.5506359427539937E-11  -1.0151803656210332E-11  -1.385840137641902E-13
1.8999999999999998E-5     8.718497124952485E-12    2.036357559890357E-11    3.170372420362238E-11    1.6998117584514195E-11   6.232007532081889E-12    9.018460140050327E-13    -1.8090161815091314E-11  -2.384419657324537E-11   -2.44516717636989E-11    -1.68065090333825E-11    -2.5395877316100146E-13
1.95E-5                   1.4986316372245998E-11   3.017959918500031E-11    4.3209576401338585E-11   2.987097458722258E-11    1.0950597023884083E-11   1.5644716287229419E-12   -2.5947993944458842E-11  -3.5178238777844917E-11  -3.3874980187556884E-11  -2.4876381487980553E-11  -4.471094439039091E-13
1.9999999999999998E-5     2.4636189892870775E-11   3.9103469913913814E-11   4.8635764558143385E-11   4.189156580553823E-11    1.837760131317592E-11    2.6633759376358313E-12   -3.3903287972933214E-11  -4.2111876214314006E-11  -3.9815850584441256E-11  -3.240911333739292E-11   -7.871702470904052E-13
2.05E-5                   3.580449530936197E-11    4.4465659191274864E-11   4.608325402553905E-11    4.6993389821437875E-11   2.787913932070632E-11    4.531842446992642E-12    -4.1624411075293787E-11  -4.147937601800047E-11   -3.936907329554621E-11   -3.7743712407387797E-11  -1.3932149924577718E-12
2.1E-5                    4.555250262700075E-11    4.444540480880683E-11    3.809342062337425E-11    4.3572279285842725E-11   3.709845589868162E-11    7.502411852198314E-12    -4.8660683763936706E-11  -3.473722525894309E-11   -3.354606082102348E-11   -4.0378217997336516E-11  -2.4236889749904636E-12
2.1499999999999997E-5     5.23724977361448E-11     3.8954156059843364E-11   2.8790194525139677E-11   3.637041024216435E-11    4.293315526443465E-11    1.1499854547338232E-11   -5.336295162013795E-11   -2.6748093163614376E-11  -2.6427863654412345E-11  -4.0377158499341446E-11  -4.0554543107485154E-12
2.2E-5                    5.7176562227139185E-11   2.935766785299154E-11    1.9673878422821717E-11   3.1721386104428787E-11   4.347933640474025E-11    1.5722331793822483E-11   -5.300870452066956E-11   -2.1081675187473552E-11  -2.0598081056869555E-11  -3.730606122250233E-11   -6.446733070602652E-12
2.2499999999999998E-5     6.12082154804619E-11     1.706715194846916E-11    8.184855720866595E-12    3.0298258470947595E-11   3.915944505882106E-11    1.8911329911501224E-11   -4.524042444234435E-11   -1.628251938209184E-11   -1.3704972950734874E-11  -3.0274333852523096E-11  -9.639922018383949E-12
2.3E-5                    6.307267907846813E-11    2.2933377273963526E-12   -1.0004728870277698E-11  2.505985544108783E-11    3.169066226732628E-11    2.0219874927443757E-11   -2.959807185550687E-11   -6.8564563899195885E-12  -4.2477009426822383E-13  -1.8870453452935283E-11  -1.3395168082070428E-11
2.35E-5                   5.837384853542E-11       -1.6028560690205973E-11  -3.7471839233225114E-11  7.059007835136219E-12    2.1743205376127583E-11   1.991092475899369E-11    -7.913885047119418E-12   1.2088927168301699E-11   2.21285988787793E-11     -3.3358876550001308E-12  -1.7080532893583597E-11
2.4E-5                    4.247993649937292E-11    -3.950221414877253E-11   -7.309188194412345E-11   -2.6716036943641047E-11  7.773867518928816E-12    1.9023033941105412E-11   1.6965324605899306E-11   4.112055248870052E-11    5.169489370207302E-11    1.6456561522075738E-11   -1.9821778698198082E-11
2.45E-5                   1.3622521245993294E-11   -6.940727751981236E-11   -1.1271009506713302E-10  -7.139823566928775E-11   -1.2506670541915852E-11  1.810281078888824E-11    4.364381158128221E-11    7.67512089236935E-11     8.364184940527132E-11    4.167091842423146E-11    -2.0938291417083335E-11
2.4999999999999998E-5     -2.6291825086709842E-11  -1.057525731225591E-10   -1.51862338879238E-10    -1.1929342773669375E-10  -3.941518955855249E-11   1.6208730961849143E-11   7.407257502221296E-11    1.145549367031806E-10    1.1548441476072159E-10   7.360723740742633E-11    -2.03435717088654E-11
2.55E-5                   -7.330767999511522E-11   -1.4655814632112479E-10  -1.8860398797008302E-10  -1.6554888458242044E-10  -7.024818184081747E-11   1.13507412512442E-11     1.1285191051423639E-10   1.5180452967015273E-10   1.4805786106720096E-10   1.121176095461612E-10    -1.847706445025899E-11
2.6E-5                    -1.2406274055105096E-10  -1.885123834623956E-10   -2.23977320380099E-10    -2.087904694298371E-10   -1.0124779948417508E-10  2.1832000481704335E-12   1.638652211173329E-10    1.8777190510580276E-10   1.8303348017278783E-10   1.5511067460905568E-10   -1.5728641225246432E-11
2.65E-5                   -1.7787454814907642E-10  -2.2925585854526083E-10  -2.5968358307643545E-10  -2.482348809098001E-10   -1.3080621979702027E-10  -1.0627138921299344E-11  2.2684900280810154E-10   2.2246037634125836E-10   2.2049759806039893E-10   1.9972750066014544E-10   -1.1870137594926118E-11
2.7E-5                    -2.3696025125354533E-10  -2.69245453296413E-10    -2.9569659987044974E-10  -2.82730343028447E-10    -1.6071757322149803E-10  -2.489437357018118E-11   2.9687358937958993E-10   2.5555474337402157E-10   2.5897259810789656E-10   2.4417441686136945E-10   -6.047653298548253E-12
2.7499999999999998E-5     -3.0439556877462944E-10  -3.107704244326994E-10   -3.303890082320595E-10   -3.132740999166957E-10   -1.9410243630940902E-10  -3.908914641749781E-11   3.6709538124532465E-10   2.864425470358351E-10    2.96689744046932E-10     2.885521030006645E-10    2.6959339206591686E-12
2.8E-5                    -3.811713713907375E-10   -3.5450373223133194E-10  -3.620095911019878E-10   -3.4465135299791757E-10  -2.319592341738521E-10   -5.4145734153415554E-11  4.322380128962194E-10    3.14716407637363E-10     3.320941073712662E-10    3.336860734512166E-10    1.491265831754382E-11
2.8499999999999998E-5     -4.6458455166819155E-10  -3.968432098533299E-10   -3.886340610727817E-10   -3.819392494985107E-10   -2.7175248373199604E-10  -7.290670534460719E-11   4.899233022520272E-10    3.4000885672010974E-10   3.633111223745491E-10    3.7878793252392655E-10   3.065220075354968E-11
2.9E-5                    -5.488968415062951E-10   -4.306390987180136E-10   -4.065524908108572E-10   -4.237416126162771E-10   -3.0934838568122445E-10  -9.755455472273864E-11   5.392206586449281E-10    3.6079338890194944E-10   3.873924011210478E-10    4.2018961096248094E-10   4.966820814124588E-11
2.95E-5                   -6.271888775314474E-10   -4.483336864078386E-10   -4.097277147258368E-10   -4.5878359540053846E-10  -3.4203937920267096E-10  -1.2764086502168124E-10  5.782323780279584E-10    3.731940938522979E-10    3.9987257823156876E-10   4.5233166571878237E-10   7.164272690935111E-11
2.9999999999999997E-5     -6.928570202447105E-10   -4.442872301179948E-10   -3.915745895963842E-10   -4.701384627755195E-10   -3.6927960781099484E-10  -1.60746470158347E-10    6.030081925622582E-10    3.7132332100237754E-10   3.949957643357197E-10    4.696145136227463E-10    9.63479586472272E-11
3.05E-5                   -7.402026666020615E-10   -4.1478058072116825E-10  -3.476072134066571E-10   -4.4417547421777186E-10  -3.9039098964745815E-10  -1.947955699217063E-10   6.084510266763482E-10    3.493414307712434E-10    3.668986441898573E-10    4.67150617639018E-10     1.237495829743146E-10
3.1E-5                    -7.643783548053237E-10   -3.57307530662278E-10    -2.769675378890879E-10   -3.76944443089253E-10    -4.019022652667876E-10   -2.2913696743402765E-10  5.898119210383813E-10    3.0357070047407255E-10   3.111540664947266E-10    4.4050803164506105E-10   1.5388852913490775E-10
3.15E-5                   -7.608823126846455E-10   -2.708201340825816E-10   -1.816889951718536E-10   -2.7353145113503483E-10  -3.9753794843672327E-10  -2.6306966137963127E-10  5.428499292379612E-10    2.328365956734078E-10    2.253876769670219E-10    3.857956167786302E-10    1.8640769685000149E-10
3.2E-5                    -7.246370332766785E-10   -1.5584459143953575E-10  -6.363346505533159E-11   -1.422826186469021E-10   -3.7094847538844435E-10  -2.93641090380692E-10    4.6238754916812373E-10   1.3706396411449082E-10   1.0867366544013461E-10   3.0021212566335113E-10   2.2000313813679919E-10
3.25E-5                   -6.491074451975107E-10   -1.2758488810828713E-11  7.887554699719158E-11    1.1057971441807592E-11   -3.1840437576348533E-10  -3.1549574165307387E-10  3.412356658803391E-10    1.5857109899940197E-11   -3.9076162067598185E-11  1.8207218481771104E-10   2.5233295490007325E-10
3.2999999999999996E-5     -5.263146553959946E-10   1.6039366589210583E-10   2.5118300871203685E-10   1.8599842639887767E-10   -2.3885051154731946E-10  -3.23284798297811E-10    1.7160629869354388E-10   -1.3151782427984475E-10  -2.1678623802090174E-10  3.027255628611682E-11    2.805266415195393E-10
3.35E-5                   -3.4807513418048104E-10  3.672663650538556E-10    4.5805909289356E-10      3.863153949361384E-10    -1.3156027859344153E-10  -3.143709903844918E-10   -5.149743666895502E-11   -3.0502484266262817E-10  -4.216278376817666E-10   -1.5579151576795858E-10  3.018227509855309E-10
3.4E-5                    -1.0771008484994876E-10  6.093588247440431E-10    6.986399720697408E-10    6.163778339778778E-10    5.847157494431893E-12    -2.89258575639864E-10    -3.2793419313060805E-10  -5.029820997751873E-10   -6.492680336955712E-10   -3.7563052585874824E-10  3.1381744837943145E-10
3.45E-5                   1.9884778264947923E-10   8.823437087004592E-10    9.650642969459287E-10    8.765743351529194E-10    1.766020996708138E-10    -2.4943069049476956E-10  -6.53267298266012E-10    -7.222135838473088E-10   -8.94686175797496E-10    -6.27244219236846E-10    3.1432341034933936E-10
3.5E-5                    5.728347503277236E-10    1.1755127236281355E-9    1.2451614327538838E-9    1.1605110845854238E-9    3.816661810973539E-10    -1.9463875524458304E-10  -1.0215309716149422E-9   -9.585655436823646E-10   -1.1523025529518108E-9   -9.071945220428546E-10   3.011648908629811E-10
3.5499999999999996E-5     1.0127719168631467E-9    1.473998516968983E-9     1.5257692092280579E-9    1.4558195768972493E-9    6.173303070347704E-10    -1.2190136250406521E-10  -1.4268228619909292E-9   -1.2064463129773063E-9   -1.4151269664304615E-9   -1.2103742517820193E-9   2.720609480155251E-10
3.6E-5                    1.5141996720383883E-9    1.762040413470859E-9     1.793979638601061E-9     1.747691240296658E-9     8.760180711923576E-10    -2.6612160770717482E-11  -1.8623286071825082E-9   -1.4571610900734483E-9   -1.6740862164465662E-9   -1.529030483643004E-9    2.245519033610598E-10
3.65E-5                   2.0685839694118804E-9    2.0261311589977827E-9    2.036650188306009E-9     2.0223767528902286E-9    1.1494933040029164E-9    9.56173778675669E-11     -2.3180507224394373E-9   -1.6976889128952863E-9   -1.918328404694325E-9    -1.851890827578868E-9    1.5601176761028094E-10
3.7E-5                    2.6616254417216524E-9    2.2565610195010425E-9    2.2398978996158518E-9    2.2685052063331063E-9    1.4310775948995727E-9    2.476713647013581E-10    -2.7790082783211543E-9   -1.9117901245957483E-9   -2.1356181044079246E-9   -2.164447068160757E-9    6.383960631151135E-11
3.75E-5                   3.2722462961694906E-9    2.445525191774276E-9     2.389362580033877E-9     2.475708029118403E-9     1.7145266405364456E-9    4.3020174165770745E-10   -3.2244437291125042E-9   -2.0831415552388624E-9   -2.3117213846711314E-9   -2.4502810161381596E-9   -5.425289293759459E-11
3.7999999999999995E-5     3.8735853962015575E-9    2.5824258126826384E-9    2.4707986778823846E-9    2.631230226452848E-9     1.9907884541599445E-9    6.409587641669119E-10    -3.6281036491048643E-9   -2.1979518027166415E-9   -2.4296044209383874E-9   -2.6923486808634393E-9   -1.9998635579909408E-10
3.85E-5                   4.435365236243331E-9     2.650374009824473E-9     2.4705047886871276E-9    2.7163972062562166E-9    2.2459483954377846E-9    8.743901641657907E-10    -3.9601689008640675E-9   -2.2449881916880462E-9   -2.4703802922296394E-9   -2.873386697206853E-9    -3.741754070056421E-10
3.9E-5                    4.925156288765707E-9     2.627291773987356E-9     2.3757070296343784E-9    2.7057471886566307E-9    2.4621731700416E-9       1.122099915294997E-9     -4.1907457154057774E-9   -2.213614846625276E-9    -2.416169306288671E-9    -2.975542773190674E-9    -5.761101922917467E-10
3.95E-5                   5.307471736322338E-9     2.490657867220011E-9     2.175000295642298E-9     2.570621566177926E-9     2.6205742275326077E-9    1.3740008223415595E-9    -4.292756861305297E-9    -2.09220252108161E-9     -2.2527457456358273E-9   -2.980003906524328E-9    -8.028207461704333E-10
3.9999999999999996E-5     5.542989368133034E-9     2.222269884093788E-9     1.858503088442565E-9     2.286029284465779E-9     2.7037965784044354E-9    1.6193454996387762E-9    -4.241710979262245E-9    -1.8685314863948662E-9   -1.9702214448223985E-9   -2.8673757843856284E-9   -1.0486960315946644E-9
4.0499999999999995E-5     5.590692569728398E-9     1.8108066631152427E-9    1.417870768278422E-9     1.8373716906104203E-9    2.6970794748424616E-9    1.8472780808059026E-9    -4.01296519521673E-9     -1.531958292488185E-9    -1.562207666900035E-9    -2.6190150092196682E-9   -1.3056656193517756E-9
4.1E-5                    5.412216314839341E-9     1.2522778361432359E-9    8.473503403918764E-10    1.2239274826196395E-9    2.587722971620239E-9     2.0470843125900356E-9    -3.580395575533025E-9    -1.0760644712445792E-9   -1.0248828525332656E-9   -2.2189720984797716E-9   -1.5636412545865397E-9
4.15E-5                   4.974926173521571E-9     5.490390816524441E-10    1.463823404077426E-10    4.577926055563999E-10    2.3635905544785195E-9    2.2078879651778313E-9    -2.9193729998924373E-9   -5.005780663435917E-10   -3.568001009614728E-10   -1.6560761245319334E-9   -1.810860978530379E-9
4.2E-5                    4.252027392550452E-9     -2.9186899080529584E-10  -6.780284758506125E-10   -4.4110624377580347E-10  2.0119566174000605E-9    2.31727909518329E-9      -2.01249825062184E-9     1.8805007176505817E-10   4.4019091117009317E-10   -9.257443873773101E-10   -2.0341744539365744E-9
4.2499999999999996E-5     3.221758338854451E-9     -1.2597199896759725E-9   -1.6113492911744554E-9   -1.4513403249947627E-9   1.5202719257868113E-9    2.359621705557046E-9     -8.539830063853192E-10   9.77306821414707E-10     1.3587356064852158E-9    -3.098420862188123E-11   -2.219477177209361E-9
4.2999999999999995E-5     1.86858488572108E-9      -2.3393640816603315E-9   -2.6333347623472935E-9   -2.553835140883904E-9    8.792679029724902E-10    2.3161672642104507E-9    5.495261634772494E-10    1.8498019821020046E-9    2.383273891654796E-9     1.0177903687579532E-9    -2.3521915002894834E-9
4.35E-5                   1.8671673675993577E-10   -3.5092452498896274E-9   -3.7188188299131094E-9   -3.730721388227374E-9    8.686711671407541E-11    2.16803755071577E-9      2.180377208269824E-9     2.7841512938238656E-9    3.4886073180622455E-9    2.203573216006116E-9     -2.4174772747695377E-9
4.4E-5                    -1.8160409955027476E-9   -4.739671424338699E-9    -4.836400058671145E-9    -4.9600873149460154E-9   -8.493609192157415E-10   1.900199903753103E-9     4.010974454833393E-9     3.7551462244727876E-9    4.640770016128282E-9     3.502851735446856E-9     -2.4001867429436307E-9
4.45E-5                   -4.1155357502949465E-9   -5.992168663780072E-9    -5.946982083147971E-9    -6.210013302431543E-9    -1.9122403970564068E-9   1.503324026682633E-9     6.003143689129144E-9     4.733333875942571E-9     5.799314186240955E-9     4.8843364846956175E-9    -2.285018029977617E-9
4.4999999999999996E-5     -6.669328921736871E-9    -7.219638015378271E-9    -7.004226658975101E-9    -7.4349339226325786E-9   -3.076830217230667E-9    9.725893202483055E-10    8.106436403977534E-9     5.6844645251342144E-9    6.919240882972084E-9     6.307438089175673E-9     -2.057205250466864E-9
4.5499999999999995E-5     -9.415392963714879E-9    -8.366897224342968E-9    -7.95674078588434E-9     -8.57580725778924E-9     -4.312609215600185E-9    3.0556142276202384E-10   1.0257058773866915E-8    6.569423196209947E-9     7.951820889907935E-9     7.722132978571723E-9     -1.7035657667511064E-9
4.6E-5                    -1.2272770880830488E-8   -9.37198278870667E-9     -8.750954687519339E-9    -9.564478597590015E-9    -5.584856244186232E-9    -4.981109201714807E-10   1.2378700194387416E-8    7.345236806043064E-9     8.845064891465382E-9     9.070582882581934E-9     -1.2135339236143152E-9
4.65E-5                   -1.514502627091618E-8    -1.01692596807297E-8     -9.33455650059896E-9     -1.0331261198169526E-8   -6.854862754354964E-9    -1.4343596582031058E-9   1.4385020113969884E-8    7.967330267840026E-9     9.545009426535074E-9     1.0289624406618323E-8    -5.801324275581341E-10
4.7E-5                    -1.7924274154690626E-8   -1.0694774303871003E-8   -9.660273929759004E-9    -1.0812641594139654E-8   -8.079430960328472E-9    -2.491175537784467E-9    1.618230801162613E-8     8.39243352513916E-9      9.998130399088584E-9     1.1313390194616663E-8    1.9890073183342153E-10
4.7499999999999996E-5     -2.0492459919125238E-8   -1.0892384443307032E-8   -9.688499661804954E-9    -1.0955414693810293E-8   -9.210507724099714E-9    -3.646271332656532E-9    1.7671293432012843E-8    8.581035444536488E-9     1.0154213435489011E-8    1.207597710155512E-8     1.119798615464135E-9
4.8E-5                    -2.2720166010313603E-8   -1.071801307517516E-8    -9.387654460993855E-9    -1.0716327940018714E-8   -1.0195545203341442E-8   -4.867521920314499E-9    1.874890575516347E-8     8.498699938641058E-9     9.969021897062126E-9     1.2514121844143434E-8    2.171563554152306E-9
4.85E-5                   -2.446719295917861E-8    -1.01407335882012E-8     -8.733732157176075E-9    -1.0060137741076302E-8   -1.0978721442807411E-8   -6.11575273216236E-9     1.9311844759878436E-8    8.116694414976875E-9     9.406903612187233E-9     1.256969628865636E-8     3.335212602533394E-9