% Model:              Untitled.mph
% Version:            COMSOL 6.0.0.405
% Date:               Jul 15 2025, 14:23
% Dimension:          1
% Nodes:              401
% Expressions:        11
% Description:        Point graph
% Time (s)                Displacement field, Y component Displacement field, Y component Displacement field, Y component Displacement field, Y component Displacement field, Y component Displacement field, Y component Displacement field, Y component Displacement field, Y component Displacement field, Y component Displacement field, Y component Displacement field, Y component
0                         6.369420490790437E-36    1.219085290142244E-35    2.067760304161459E-34    -6.099053676001236E-36   -5.653504986348567E-33   -1.1626841907462519E-32  -5.4509660431360074E-33  -4.582236884773479E-33   4.6539690696701576E-32   -8.03904130764853E-33    8.71084380441595E-34
5.0E-7                    2.8524986204726606E-29   -2.899013302217008E-26   6.584176593278016E-27    -4.189387336698396E-25   4.718653092386871E-24    6.196019028749605E-24    1.811644104351254E-23    -7.900110351047824E-25   -1.1109741501962309E-23  1.1925217192061428E-25   -1.4368410806267674E-25
1.0E-6                    -2.2467500512040264E-26  -5.457143646019234E-26   3.7020060894037126E-26   -6.999003002487631E-25   8.697291695667124E-25    -5.96957432481766E-23    -5.82963900052201E-23    -2.308638216033058E-23   2.1989182985495277E-23   1.3440324226185689E-24   1.6190395725877785E-25
1.5E-6                    5.686193406378084E-26    2.620325452838039E-25    -7.046234914030234E-26   3.754128454728836E-24    -1.2079722840282763E-22  1.6874041060825073E-22   2.5444099945011693E-22   3.628759101723428E-22    -2.4871517969123104E-22  2.8188601825577316E-23   -1.6841671994419016E-25
2.0E-6                    3.0929335333336258E-25   1.6624450408031606E-24   -2.1729525494291E-24     1.7219176070039922E-23   2.1612331354836995E-22   1.4899003457128409E-21   1.994891171378121E-21    -6.074063217599273E-22   4.875315399434418E-22    -1.1742082844420882E-22  -4.7443190892636325E-25
2.4999999999999998E-6     -9.956314478130938E-25   1.5996635165547347E-25   -1.863920420980743E-26   -2.9317386679293534E-23  1.891691162489918E-21    -5.246924500198501E-21   -4.767322501201772E-21   -3.989663651043714E-21   3.2615341334056947E-21   -2.4669730384787158E-22  1.1737291453373325E-24
3.0E-6                    -2.0693300389942716E-24  -1.9330663743272995E-23  2.776508483583914E-23    -1.7713099554027762E-22  -1.8452359898008975E-21  -1.4323823449199665E-20  -1.8369582225330197E-20  2.010836464669672E-20    -4.384029466749072E-21   1.209582460925264E-21    4.826874061770209E-24
3.5E-6                    7.696131262911711E-24    -2.845901268678594E-23   7.753800438489871E-24    1.505436376838246E-22    -1.9438677728512413E-20  5.842689485909255E-20    3.6672577944395274E-20   2.893032199147459E-20    -2.2035311105638778E-20  3.660691711515918E-21    -4.337087661875955E-23
4.0E-6                    1.0163570782173751E-23   1.1547847993534906E-22   -2.260352124358272E-22   1.0818657457069937E-21   -5.686630925563072E-21   1.0959172673514372E-19   1.341287003969506E-19    -1.2972938086897338E-19  2.1872695702676038E-20   -7.329414928543138E-21   -2.0766093251939753E-22
4.5E-6                    -4.009524004157187E-23   2.726193760003652E-22    -4.496607223012502E-23   -6.507051574767675E-22   1.1917995372777372E-19   -3.682867255415244E-19   -1.7048189129317834E-19  -2.8944101105099097E-19  7.011336692035372E-21    -4.217595626764611E-20   3.396671821677565E-22
4.9999999999999996E-6     -4.793521037068739E-23   -4.151680329153408E-22   1.3420133905625142E-21   -5.816640617226967E-21   1.5753982052398524E-19   -7.109553625258082E-19   -8.324164635208535E-19   2.9118175388876623E-19   -6.54439635070159E-20    2.176026376987171E-20    4.090872438486984E-21
5.5E-6                    1.6355971308779484E-22   -1.4121494474652396E-21  -1.0783639185616606E-22  -4.5537706744740985E-23  -4.571229677123665E-19   1.5741706432597277E-18   2.5661521510297314E-19   1.929408396980967E-18    6.423654162166016E-19    2.802832029925078E-19    7.89965186754618E-21
6.0E-6                    2.5075705727057352E-22   1.0530691218992789E-21   -6.841370844068981E-21   2.3977297671374243E-20   -1.2958476144348985E-18  3.968590884076102E-18    3.620513253076358E-18    7.927264779318469E-19    3.2326736252194157E-19   -1.1164209147783794E-20  -4.748471170856791E-21
6.5E-6                    -5.838172316958864E-22   4.409925252158241E-21    1.7262895218379748E-21   7.414021862305595E-21    3.2025347494327015E-19   -4.540223878623977E-18   9.520662855206607E-19    -9.051433693792988E-18   -5.039961722330547E-18   -1.566653344287607E-18   -8.558103684715402E-21
7.0E-6                    -1.5758389509788898E-21  -5.718669138837785E-21   3.155567490055229E-20    -1.1996927680525426E-19  5.0371952031319964E-18   -1.9401367766689592E-17  -1.400251521499716E-17   -1.3017366095751437E-17  -7.162716177717595E-18   -1.2219418372657395E-18  1.8378484189643646E-19
7.499999999999999E-6      1.3519378315634251E-21   -1.3578335610756772E-20  -8.0127422213607E-21     -1.752462379827992E-19   3.773178132256149E-18    -1.4602577730197331E-19  -1.7559389927210157E-17  1.9086032126814405E-17   1.0616298778729906E-17   4.143835899757623E-18    8.190150330526237E-19
8.0E-6                    9.46149522539492E-21     3.882801902420911E-20    -1.5717474833167986E-19  1.97218733881343E-19     -1.4622810853726503E-17  5.874409948858491E-17    2.181046280696089E-17    4.284846816745434E-17    3.2323473285208816E-17   1.3282608952362056E-18   1.8643714954714958E-18
8.5E-6                    3.231506059455052E-21    6.447724750901712E-20    -7.706262311266583E-20   3.967289644245606E-19    -3.200486225628253E-17   2.8962008560485605E-17   5.2574197615729505E-17   -5.339526587446384E-17   -1.4366143663668407E-17  -2.7064618434850185E-17  4.197046325446412E-18
9.0E-6                    -4.733222647512108E-20   -2.272204649444173E-19   5.190409513447591E-19    -1.5006045161982006E-18  3.0198493242864303E-18   -1.954998856513985E-16   -6.054072912629013E-17   -1.899096601751915E-16   -1.9113241961343212E-16  -5.1110587652286743E-17  1.413733507302024E-17
9.499999999999999E-6      -7.396465288732977E-20   -5.672874436722611E-19   4.450292312246202E-19    -5.1452279840907105E-18  7.981193779405571E-17    -3.404636552644453E-16   -3.1898008992902987E-16  -1.226282034867697E-16   -3.3555980289703775E-16  -4.15782497381639E-17    4.7614687529658346E-17
9.999999999999999E-6      1.3878688499404485E-19   3.554675089942699E-19    -2.2050320508431615E-18  -5.67287809119223E-18    2.6431840838736316E-17   2.3487847085860782E-17   -4.167778624163493E-16   -7.300342642759284E-17   -5.0527397581490267E-17  -1.5675801212532267E-16  1.3383485736455121E-16
1.05E-5                   4.830974506145451E-19    2.2977565674842635E-18   -4.712495107399072E-18   -5.744025822731899E-18   -3.0411186808503205E-16  3.9583246342187554E-16   -1.747577611888684E-16   -6.720381945326822E-16   3.208436421377933E-16    -6.95996681192006E-16    3.5008483998660167E-16
1.1E-5                    -9.15622014912064E-20    1.536318868433721E-19    3.8207606648225E-19      -3.138234823372927E-17   -6.168667548526769E-16   -8.896233761592516E-16   -5.519566911032865E-16   -1.7545999805691862E-15  -1.2387563929361623E-15  -1.7344697337183698E-15  9.31782952148719E-16
1.15E-5                   -2.2365563032360135E-18  -1.0169634475571207E-17  7.341059273971437E-18    -1.1012145229967395E-16  -3.459428344774233E-16   -4.450954456555834E-15   -3.4874267920205368E-15  -2.8353414813018873E-15  -6.151534098948309E-15   -3.455352093714196E-15   2.4429090713642575E-15
1.2E-5                    -2.6638243404191824E-18  -1.6927339917443678E-17  -1.4886966884384836E-17  -2.2630164030805393E-16  1.2024758174075826E-16   -7.947293712673495E-15   -8.939931835997786E-15   -6.0197493332604286E-15  -1.1685022353425496E-14  -7.847761769491674E-15   6.0673043239370034E-15
1.2499999999999999E-5     4.4032896730118036E-18   2.6027916153685158E-18   -8.094712353192824E-17   -3.8786063784561243E-16  -1.346477545802417E-15   -9.652309270474054E-15   -1.3215053992591086E-14  -1.592226124523746E-14   -1.5445075302921477E-14  -2.0174619922772037E-14  1.451811945515459E-14
1.3E-5                    1.3587916495268175E-17   3.1606822868105754E-17   -1.347326474175934E-16   -8.515200830074095E-16   -6.90230011954854E-15    -1.5917903220843588E-14  -1.654619422028884E-14   -3.506209986154763E-14   -2.8339378794499463E-14  -4.860803951583169E-14   3.4221861685370506E-14
1.35E-5                   -1.1819085705716508E-18  -2.5059827941613515E-17  -1.342693597335548E-16   -2.1884654465787488E-15  -1.5748736457453967E-14  -4.2243906541432236E-14  -3.5741601878447436E-14  -6.494822742768275E-14   -7.724314355000309E-14   -1.0517833911785706E-13  7.866967327879547E-14
1.4E-5                    -5.3691408319299463E-17  -2.3534937969540466E-16  -2.802468997435847E-16   -4.922572909912622E-15   -2.484172738603163E-14   -1.0348096870050404E-13  -1.0178143664175115E-13  -1.2065521237386846E-13  -1.870526091562509E-13   -2.162156517629113E-13   1.7338502554235037E-13
1.45E-5                   -8.146861206545042E-17   -4.374655995764637E-16   -1.036955298926545E-15   -9.51324770042658E-15    -3.70624208595762E-14    -2.0662189458736844E-13  -2.3706135951055536E-13  -2.480968716369148E-13   -3.7418711681055095E-13  -4.477577049823016E-13   3.6743570226092846E-13
1.4999999999999999E-5     2.2871790243862594E-17   -3.706231829714679E-16   -2.673748826683334E-15   -1.7997332452183095E-14  -7.321339327643014E-14   -3.639171901153546E-13   -4.4388876190668954E-13  -5.233335211818464E-13   -6.966469116716001E-13   -9.361001129651882E-13   7.58636556386115E-13
1.55E-5                   1.91599383765565E-16     -3.6815019724492004E-16  -4.96500516590416E-15    -3.633199252469867E-14   -1.7414560074830887E-13  -6.219134133930335E-13   -7.41398590670452E-13    -1.032108360806027E-12   -1.3290985673127782E-12  -1.8998851558408862E-12  1.5292586658223519E-12
1.6E-5                    2.8971495064458436E-17   -1.6700781837509573E-15  -8.325080616683539E-15   -7.385903396610302E-14   -3.803626806742597E-13   -1.0795508601963097E-12  -1.258154657559413E-12   -1.874889534562338E-12   -2.547870368070261E-12   -3.637066181852579E-12   2.976511155940348E-12
1.6499999999999998E-5     -7.85066535121041E-16    -5.121313099299065E-15   -1.60635116489528E-14    -1.4056899442219744E-13  -7.065928094167987E-13   -1.885027106617279E-12   -2.3599563566157105E-12  -3.270159621733389E-12   -4.630664696425885E-12   -6.570937265296103E-12   5.532161979682945E-12
1.7E-5                    -1.7164269230151184E-15  -9.629362497175113E-15   -3.453135790435346E-14   -2.5249249427989717E-13  -1.1671521149494964E-12  -3.2487394380151257E-12  -4.729164376925858E-12   -5.7354890336178565E-12  -7.932453225632036E-12   -1.1360744865328355E-11  9.772764468150611E-12
1.75E-5                   -1.563461826857624E-15   -1.4123754807430022E-14  -6.943986730567908E-14   -4.5302114927899373E-13  -1.883493077614144E-12   -5.4987264230203915E-12  -9.190984424777246E-12   -1.010993723929544E-11   -1.3209612216999715E-11  -1.88228256572701E-11    1.6348133228358752E-11
1.8E-5                    -4.62329521468044E-16    -2.2818976967245207E-14  -1.2507206509395237E-13  -8.349666685100587E-13   -3.195669676834632E-12   -9.07414789561439E-12    -1.6131146868118068E-11  -1.7104838301659375E-11  -2.1494242235521773E-11  -2.925838487736436E-11   2.565379866694872E-11
1.85E-5                   -1.6902335311167295E-15  -4.636007280057395E-14   -2.16447133394188E-13    -1.5342988116759368E-12  -5.611057692756863E-12   -1.4273644558677173E-11  -2.48147154733162E-11    -2.6445170216225087E-11  -3.281236450607414E-11   -4.138991210341437E-11   3.7229370724937485E-11
1.8999999999999998E-5     -9.6995326938963E-15     -9.421925927847563E-14   -3.8818216732794037E-13  -2.6945489520303106E-12  -9.4919997513451E-12     -2.082085301118287E-11   -3.340805599099765E-11   -3.6325535898398634E-11  -4.4804917891172505E-11  -5.2162477854109935E-11  4.936717972089343E-11
1.95E-5                   -2.4864601909278982E-14  -1.6864618947404577E-13  -7.143532162340931E-13   -4.436824142389423E-12   -1.4616888047857792E-11  -2.76897305727656E-11    -4.011521598433229E-11   -4.407092584739834E-11   -5.3592594056064296E-11  -5.8423704897708E-11     5.960974622502453E-11
1.9999999999999998E-5     -4.184847866428858E-14   -2.761055584326143E-13   -1.2720315557290996E-12  -6.842126007075615E-12   -1.9990054127578847E-11  -3.3502041211982935E-11  -4.4505974702103484E-11  -4.792031872262168E-11   -5.6879143211894506E-11  -5.921910666948794E-11   6.596163387617349E-11
2.05E-5                   -5.776351564485887E-14   -4.5197589867712087E-13  -2.1291558240037932E-12  -9.884773125689238E-12   -2.4245069654377148E-11  -3.712898953728715E-11   -4.740634343028379E-11   -4.8354914215511194E-11  -5.5592506874760866E-11  -5.588542176127414E-11   6.751206350155789E-11
2.1E-5                    -8.55555597663462E-14    -7.702294992644356E-13   -3.380525422780368E-12   -1.3286080882544532E-11  -2.6486014411844823E-11  -3.7879327543121034E-11  -4.909072888323238E-11   -4.7206695041301544E-11  -5.1518485540953197E-11  -4.9411177362496376E-11  6.366312147999501E-11
2.1499999999999997E-5     -1.5828549482386933E-13  -1.3184763782815319E-12  -5.1681090657794255E-12  -1.6420252829728894E-11  -2.6783854525279698E-11  -3.5328719794273816E-11  -4.775932737100965E-11   -4.4926071049318376E-11  -4.404912421166457E-11   -3.8342323305254846E-11  5.3178827493552504E-11
2.2E-5                    -3.1481125855177734E-13  -2.1547097553235883E-12  -7.566339386889392E-12   -1.84811222648831E-11    -2.5665481818894556E-11  -2.9353197388469424E-11  -4.0380979149641106E-11  -3.8942286191073214E-11  -3.0762166469712335E-11  -2.013929777189402E-11   3.478020922513046E-11
2.2499999999999998E-5     -5.767430882397283E-13   -3.2789310565806683E-12  -1.0353138629343655E-11  -1.8894831127600832E-11  -2.3057427969513174E-11  -2.032293089342626E-11   -2.52231543504899E-11    -2.5495446255492488E-11  -1.0811655890132917E-11  5.765469679920207E-12    8.616014215309896E-12
2.3E-5                    -9.440370337573779E-13   -4.629479174055361E-12   -1.2907572721158556E-11  -1.7625041535550687E-11  -1.7996364516089846E-11  -8.741573414758345E-12   -3.1014234862453188E-12  -3.263913580160794E-12   1.4161137934586667E-11   3.733083796816655E-11    -2.386733390821596E-11
2.35E-5                   -1.4295705238213775E-12  -6.084803477064098E-12   -1.4445452285301623E-11  -1.5025713355529564E-11  -9.585059507039711E-12   5.694912340757309E-12    2.4205640664962775E-11   2.56462674866657E-11     4.285185802911102E-11    7.255744494601155E-11    -6.203571407026113E-11
2.4E-5                    -2.1108849881369202E-12  -7.455361422874903E-12   -1.4452794430156362E-11  -1.1348049023255879E-11  2.0261666712832975E-12   2.4471434290026743E-11   5.640199910576152E-11    5.88127797733681E-11     7.647553183400186E-11    1.1210726700853433E-10   -1.0741884104085955E-10
2.45E-5                   -3.1268049079272203E-12  -8.480688058141683E-12   -1.2910436911466721E-11  -6.3848102878520444E-12  1.6011559160139052E-11   4.9279212931697856E-11   9.497379435913004E-11    9.663937024985283E-11    1.174396506272777E-10    1.5875406977839372E-10   -1.623597303868696E-10
2.4999999999999998E-5     -4.555226870270772E-12   -8.867509723232165E-12   -1.0106642420595103E-11  4.356506080773603E-13    3.214854870081345E-11    8.060377725482718E-11    1.411152527018851E-10    1.412268116376674E-10    1.6683375420657948E-10   2.1430656858528903E-10   -2.2758750161760873E-10
2.55E-5                   -6.2189724462904305E-12  -8.386777246033676E-12   -6.2842188983499094E-12  9.671635330680977E-12    5.130292067187482E-11    1.1740083814242027E-10   1.9387557474392617E-10   1.927037941064544E-10    2.237315799142182E-10    2.7753778584871906E-10   -3.0139497848997464E-10
2.6E-5                    -7.603690469723342E-12   -6.985987549186592E-12   -1.4875557196397446E-12  2.1579602246161823E-11   7.457406530769097E-11    1.580214760650915E-10    2.50504533991339E-10     2.483573614580388E-10    2.860980778474285E-10    3.453973200677129E-10    -3.80651945477459E-10
2.65E-5                   -8.06279714775996E-12    -4.812632006249865E-12   4.354204131692941E-12    3.611650533644809E-11    1.0232694051117761E-10   2.0117105590271366E-10   3.0824237852170253E-10   3.055687580017449E-10    3.517349921828759E-10    4.154847169832075E-10    -4.61876845687902E-10
2.7E-5                    -7.252470976575114E-12   -2.075082894056136E-12   1.1353608479176307E-11   5.319233334295039E-11    1.3413419590808705E-10   2.4605199819713E-10      3.655222385796526E-10    3.639571635282213E-10    4.186311187110574E-10    4.860122938944128E-10    -5.413012988212622E-10
2.7499999999999998E-5     -5.464788528462103E-12   1.1830484939548078E-12   1.972285194691694E-11    7.293198607361809E-11    1.691314288000111E-10    2.9197715249339144E-10   4.216294847836995E-10    4.2367384426317275E-10   4.845912916234129E-10    5.535039792548991E-10    -6.145587291787556E-10
2.8E-5                    -3.514561251505012E-12   5.189969490163829E-12    2.982100287797885E-11    9.556368483108794E-11    2.0598149276871547E-10   3.37905917691542E-10     4.753869868388257E-10    4.824252378248427E-10    5.46392314219825E-10     6.12396844859793E-10     -6.769685727895374E-10
2.8499999999999998E-5     -2.169863888587278E-12   1.0308945314980333E-11   4.205201413575081E-11    1.2079347938358963E-10   2.4269390813667146E-10   3.818907702446454E-10    5.239396073415776E-10    5.349077226485118E-10    5.995920722576474E-10    6.576191990923819E-10    -7.241195741446213E-10
2.9E-5                    -1.5141805909384396E-12  1.6783545510772616E-11   5.668032262474661E-11    1.4721977543981515E-10   2.768970792443003E-10    4.206375422448124E-10    5.623543332625776E-10    5.745787738149572E-10    6.39603324186351E-10     6.859083229096626E-10    -7.514989150511892E-10
2.95E-5                   -7.153837959962912E-13   2.462521422959248E-11    7.368422248282408E-11    1.7262669505709822E-10   3.063535439880135E-10    4.498293399447955E-10    5.841721677390825E-10    5.955348249622327E-10    6.627217607657405E-10    6.934839314755002E-10    -7.531560282974511E-10
2.9999999999999997E-5     1.6176787809299812E-12   3.373694666618473E-11    9.262251059237821E-11    1.951278287555421E-10    3.2912054025158727E-10   4.6522485253552216E-10   5.826160526429989E-10    5.935118056718201E-10    6.656661994314706E-10    6.737663026622441E-10    -7.213458204791569E-10
3.05E-5                   6.709642656056183E-12    4.408715822764423E-11    1.124602787528354E-10    2.1399964434516568E-10   3.432940168428994E-10    4.634307412673017E-10    5.519353678229735E-10    5.66064315877378E-10     6.443031123235327E-10    6.187161259097907E-10    -6.482250506686665E-10
3.1E-5                    1.494372962820864E-11    5.569397125956425E-11    1.315234794435481E-10    2.2923212072019292E-10   3.466109970524718E-10    4.4144808631277654E-10   4.882076171417772E-10    5.117448135439494E-10    5.931232001581141E-10    5.216943452791654E-10    -5.27676158406099E-10
3.15E-5                   2.5597579091413968E-11   6.841399888450336E-11    1.478855859366686E-10    2.402117054550935E-10    3.360478565086313E-10    3.955324782611183E-10    3.8899451741145464E-10   4.285842303730104E-10    5.056668150503028E-10    3.7813412485783525E-10   -3.551392518252548E-10
3.2E-5                    3.714941741098049E-11    8.176419908948406E-11    1.6014428616045004E-10   2.447789176144579E-10    3.0772925090313027E-10   3.2079324480543576E-10   2.5204170689591403E-10   3.130731766313865E-10    3.752425651056501E-10    1.8428983582587285E-10   -1.2656574151257648E-10
3.25E-5                   4.80653789211366E-11     9.495700236601517E-11    1.6796339003022925E-10   2.393596104862252E-10    2.5767060072304885E-10   2.1236854501882125E-10   7.433050141126145E-11    1.603448090076712E-10    1.9593576471829992E-10   -6.326539555558764E-11   1.61153208190873E-10
3.2999999999999996E-5     5.770626568192236E-11    1.0706110898192903E-10   1.7170691344011586E-10   2.199619939820074E-10    1.8312973773736138E-10   6.755155920709749E-11    -1.471876960818631E-10   -3.477088541566051E-11   -3.59820559940263E-11    -3.6640408825038786E-10  5.0860130053615E-10
3.35E-5                   6.67941183196704E-11     1.1706618145251632E-10   1.7127750916512348E-10   1.834467789591014E-10    8.332528052024725E-11    -1.1292413430348807E-10  -4.1342528273843653E-10  -2.7599821779093524E-10  -3.2100864339879363E-10  -7.234950197579471E-10   9.130553968223397E-10
3.4E-5                    7.697802682441725E-11    1.238292653258761E-10    1.6511449398602857E-10   1.2836701748665535E-10   -4.1293439318105276E-11  -3.258340972142945E-10   -7.214250297891787E-10   -5.631891520934491E-10   -6.56520807438886E-10    -1.1281934280740394E-9   1.3685372856730197E-9
3.45E-5                   8.956102686428461E-11    1.2612936461890486E-10   1.5020792191230052E-10   5.4754144292192736E-11   -1.904112333988839E-10   -5.678606363025417E-10   -1.064660349907184E-9    -8.905280716421839E-10   -1.0376714354087162E-9   -1.5700728258495203E-9   1.8653693445556766E-9
3.5E-5                    1.0413808324065568E-10   1.2291755399881762E-10   1.2302293085551633E-10   -3.701211244760738E-11   -3.6432166054430386E-10  -8.368727650916924E-10   -1.4349280570067276E-9   -1.2473508502592834E-9   -1.4580108723213142E-9   -2.0369503674658092E-9   2.3895792166405215E-9
3.5499999999999996E-5     1.1816411220859332E-10   1.1344073025098922E-10   8.049757165631515E-11    -1.4709656684284352E-10  -5.630061296173836E-10   -1.1306302546500536E-9   -1.823679487293323E-9    -1.621354175429714E-9    -1.909196156507042E-9    -2.5168385986989914E-9   2.923453685835251E-9
3.6E-5                    1.2792348393232084E-10   9.689249100275505E-11    2.052588228988804E-11    -2.7582747193286313E-10  -7.845916420954698E-10   -1.4443428126700397E-9   -2.2211371279746883E-9   -2.0012453900379124E-9   -2.379927383695269E-9    -2.9970976754966355E-9   3.4465025975718755E-9
3.65E-5                   1.3030965124752105E-10   7.183510147364985E-11    -5.787369923296255E-11   -4.223852730399124E-10   -1.0241568810858361E-9   -1.769457342042403E-9    -2.613819781687722E-9    -2.3764702492947345E-9   -2.8548210125044622E-9   -3.4608577310186514E-9   3.934932948643228E-9
3.7E-5                    1.241242039779829E-10    3.613610975344117E-11    -1.5418124454138245E-10  -5.838501179702612E-10   -1.2733494836846875E-9   -2.0940319687401786E-9   -2.9827634683730822E-9   -2.7347336103853333E-9   -3.314098790144616E-9    -3.8839978203352654E-9   4.360112440602529E-9
3.75E-5                   1.0994014066808385E-10   -1.2182190075226598E-11  -2.6580092765543354E-10  -7.553070624245679E-10   -1.5209395327119548E-9   -2.403224053804118E-9    -3.3041155260379472E-9   -3.0596786756691907E-9   -3.734477082082617E-9    -4.236172180553395E-9    4.6886226323560435E-9
3.7999999999999995E-5     8.871133812774396E-11    -7.370346348295226E-11   -3.880232749958852E-10   -9.305673661889621E-10   -1.7542089503896961E-9   -2.679221617450829E-9    -3.5517246573295867E-9   -3.330357008582965E-9    -4.090784987363701E-9    -4.48542647011528E-9     4.884841501341628E-9
3.85E-5                   6.027676754868759E-11    -1.4701899642866755E-10  -5.151307375649431E-10   -1.1027437753941032E-9   -1.9605417485195945E-9   -2.901683568663039E-9    -3.699929788853792E-9    -3.5229753395774696E-9   -4.357437601880539E-9    -4.601954997864308E-9    4.9142697841304334E-9
3.9E-5                    2.2904282788784268E-11   -2.2935009591698365E-10  -6.421291073309561E-10   -1.2643723013829082E-9   -2.128123683806719E-9    -3.049560393071634E-9    -3.7250331590772795E-9   -3.6143461993197333E-9   -4.509160212793309E-9    -4.558036930392654E-9    4.745739826670192E-9
3.95E-5                   -2.5863801915124538E-11  -3.1794491916540675E-10  -7.656577222305365E-10   -1.4072001530256787E-9   -2.2451586308759206E-9   -3.103345397496451E-9    -3.605365879878225E-9    -3.5849821345177424E-9   -4.520890225598396E-9    -4.326731661737902E-9    4.352250873167902E-9
3.9999999999999996E-5     -8.776189418315167E-11   -4.1106283554449954E-10  -8.831553613910054E-10   -1.5219053282461118E-9   -2.2984111388964607E-9   -3.0460412176335657E-9   -3.321094395336888E-9    -3.419516508920709E-9    -4.3674115782296634E-9   -3.883457187171353E-9    3.7111620479609217E-9
4.0499999999999995E-5     -1.6276307524183193E-10  -5.075838858972025E-10   -9.9096247484762E-10     -1.598059717221304E-9    -2.2728263010744025E-9   -2.8624894897717727E-9   -2.8549693621346005E-9   -3.104642219411605E-9    -4.023836479950919E-9    -3.209672290367681E-9    2.8048924194180138E-9
4.1E-5                    -2.490366247822771E-10   -6.054327275420597E-10   -1.0829800777320495E-9   -1.624582829744186E-9    -2.1532157681667722E-9   -2.538489695119992E-9    -2.1941723915153363E-9   -2.6274886608910003E-9   -3.4678059696787548E-9   -2.294517746684493E-9    1.6231174651184594E-9
4.15E-5                   -3.437431023637478E-10   -7.001464587898469E-10   -1.1508221209544826E-9   -1.590658789673633E-9    -1.9270249803000934E-9   -2.061319861219727E-9    -1.3323916321020026E-9   -1.9767795478998915E-9   -2.6829001820226074E-9   -1.133934568279332E-9    1.659363907062102E-10
4.2E-5                    -4.4398019982257784E-10  -7.849021045327992E-10   -1.1850498085609216E-9   -1.4867497581854708E-9   -1.5860221236903563E-9   -1.421796868984713E-9    -2.7126385579087567E-10  -1.1461421909290257E-9   -1.661420009319718E-9    2.6889127417491725E-10   -1.5538322166192965E-9
4.2499999999999996E-5     -5.471694457994402E-10   -8.520465379660163E-10   -1.176526948405196E-9    -1.3052305334337294E-9   -1.1257982375667111E-9   -6.165213564384882E-10   9.788421526538965E-10    -1.3720132527774555E-10  -4.050620759531567E-10   1.90015782139411E-9      -3.5098958971126826E-9
4.2999999999999995E-5     -6.506167021559688E-10   -8.94854950435218E-10    -1.1173501652205639E-9   -1.0404650221519833E-9   -5.442881039583504E-10   3.509732516027951E-10    2.3981805670731735E-9    1.039187951567255E-9     1.0760044197799276E-9    3.7324570296819875E-9    -5.6619528825395875E-9
4.35E-5                   -7.505835827849707E-10   -9.081587055387858E-10   -1.0012950185182054E-9   -6.886777995137942E-10   1.5838447927248072E-10   1.4700127550975783E-9    3.957000468224644E-9     2.3634422751755804E-9    2.7635937764478137E-9    5.725275785226626E-9     -7.954585641233135E-9
4.4E-5                    -8.415694415134553E-10   -8.876098231217944E-10   -8.238238187845153E-10   -2.4823348991910873E-10  9.777894994030517E-10    2.7224703420373015E-9    5.61550712221844E-9      3.808110983427449E-9     4.630187932148821E-9     7.827702977334543E-9     -1.0316900457175915E-8
4.45E-5                   -9.16365596849596E-10    -8.285244175751979E-10   -5.81796221687587E-10    2.794228965672629E-10    1.902215930230228E-9     4.082107644096391E-9     7.32486994182224E-9      5.3380501871700125E-9    6.636952289999138E-9     9.980055402958238E-9     -1.2664290195693977E-8
4.4999999999999996E-5     -9.669032010786264E-10   -7.254630264801385E-10   -2.7332502055234305E-10  8.885425345448009E-10    2.9112257060606878E-9    5.5144395671307385E-9    9.02879187595081E-9      6.910467769064423E-9     8.733318726243895E-9     1.211334872123725E-8     -1.4901596618457894E-8
4.5499999999999995E-5     -9.85397367334998E-10    -5.729693238700178E-10   1.0174724323616173E-10   1.5681905564083474E-9    3.976836514875326E-9     6.977542649895169E-9     1.0664576881352097E-8    8.475971749109784E-9     1.0858618798272166E-8    1.4148287500474727E-8    -1.6925896546028704E-8
4.6E-5                    -9.651814119990348E-10   -3.669500380732242E-10   5.408537157392091E-10    2.302075502063328E-9     5.066129990314158E-9     8.422912691818824E-9     1.2163321725379982E-8    9.980232214736124E-9     1.2943987632125226E-8    1.5995931351354247E-8    -1.8628451791580626E-8
4.65E-5                   -9.009140625833704E-10   -1.057736546118251E-10   1.0378929316585538E-9    3.0690850238744804E-9    6.142911399911948E-9     9.795593563874478E-9     1.3450290023088275E-8    1.13649334047335E-8      1.4913302795415937E-8    1.7560809603502636E-8    -1.9897114755447807E-8
4.7E-5                    -7.882049343092495E-10   2.0947400853811655E-10   1.5830760636924409E-9    3.8442102908271986E-9    7.1672397820975104E-9    1.103445514000807E-8     1.4447194131229953E-8    1.2568390938698364E-8    1.6684253625186664E-8    1.8745587680766096E-8    -2.0620621350608852E-8
4.7499999999999996E-5     -6.2294249951692E-10     5.75371944836087E-10     2.1630519246703004E-9    4.599317961793423E-9     8.094136675120919E-9     1.2074234300010386E-8    1.5076982381913783E-8    1.3527738025831297E-8    1.817076817859706E-8     1.9455769352011767E-8    -2.0694756751864126E-8
4.8E-5                    -4.0079476479898627E-10  9.864788383548543E-10    2.760603917145918E-9     5.303388051636092E-9     8.873944859301759E-9     1.284951272752965E-8     1.526957042149992E-8     1.4182958406226639E-8    1.9285823428397165E-8    1.96037279162005E-8      -2.002893657352174E-8
4.85E-5                   -1.1746808000585658E-10  1.435053353069466E-9     3.3539326861152588E-9    5.922494931240296E-9     9.455336547669197E-9     1.3299005266236127E-8    1.4966037290664453E-8    1.4480641853223405E-8    1.9943311506112756E-8    1.911246792188594E-8     -1.855178093186667E-8