% Model:              Untitled.mph
% Version:            COMSOL 6.0.0.405
% Date:               Jul 17 2025, 07:15
% Dimension:          1
% Nodes:              401
% Expressions:        11
% Description:        Point graph
% Time (s)                Displacement field, Y component Displacement field, Y component Displacement field, Y component Displacement field, Y component Displacement field, Y component Displacement field, Y component Displacement field, Y component Displacement field, Y component Displacement field, Y component Displacement field, Y component Displacement field, Y component
0                         -4.3239752409385E-33     -2.0778320002727373E-31  -4.302911279057644E-31   -2.683293115860085E-31   -3.260610883919726E-31   -9.969464213262802E-32   -2.2923958284297656E-33  -4.1296954411613604E-34  -3.051764053137909E-35   6.287787040497015E-32    3.5410980749495924E-31
5.0E-7                    3.69429844903568E-25     3.1651752442855196E-23   5.328315124958401E-23    6.182418103443398E-23    3.400574381815498E-22    1.5441476740765624E-23   2.5221888025691153E-24   2.7563771772877804E-24   3.587339143613913E-26    -7.82172083268815E-24    -3.550773877221413E-23
1.0E-6                    1.16587351314395E-24     -7.854868647069398E-23   1.509166018204815E-22    -1.4581005247704855E-22  -1.4586839026329366E-21  9.37344767422891E-23     -2.073905581887203E-23   -1.8777435496096893E-23  1.176380946294759E-25    -4.243403404343477E-24   -1.4123231076393173E-22
1.5E-6                    -4.459931938986999E-24   2.470317088154594E-22    -1.7008810737760492E-21  -1.0016457634583974E-22  -4.503529801638956E-21   -6.899431543959949E-22   7.437036321060585E-23    2.015300606730437E-24    2.970145959998353E-24    1.0039809677513382E-22   1.3082926701138369E-21
2.0E-6                    -1.5724726484845822E-23  -1.787450540030156E-22   6.2663305627153065E-21   2.2127278231597378E-21   2.034756415168203E-20    1.4024389167066837E-21   3.1670680702616187E-22   2.5503193899245118E-22   -2.1543251451368047E-23  -3.8841796171419374E-22  -4.8614242093548496E-21
2.4999999999999998E-6     1.0024977278968172E-22   -3.853029674326531E-21   -8.732537186629348E-21   -7.521334588574437E-21   5.765344563906462E-20    -3.222002755456781E-22   -9.749303014946315E-22   -1.817877945053735E-22   5.5820935072407635E-24   5.114581219924034E-22    7.659361876943929E-21
3.0E-6                    2.5413383140469048E-23   1.8537100409138638E-20   -2.3412815136587873E-20  1.374058943856543E-20    -1.1484179476257286E-19  5.554900481364092E-21    -3.709925653980612E-21   -2.0977674012785087E-21  2.9553423958678204E-22   1.0477273406936704E-21   6.3214854229914054E-21
3.5E-6                    -8.7520603084027E-22     -2.0249457990896608E-20  3.4784910474126934E-20   2.1805499616554096E-20   -7.086235455290124E-19   1.878258354120241E-20    6.797654294035391E-21    9.688567877479647E-22    -1.872592738115932E-22   -3.2292670867908003E-21  -3.303331549292326E-20
4.0E-6                    4.0480449077379985E-22   -7.67131430960883E-20    1.628126188358688E-19    -1.3923852465382708E-19  6.06485253597007E-20     -4.7415634901212194E-20  2.4908885910770157E-20   1.3225749992723882E-20   -2.5261309778551152E-21  -4.3488745418625744E-21  -1.2597340628617891E-20
4.5E-6                    4.542293786907419E-21    1.7886135890697537E-19   -1.403842421714672E-19   -2.2473303736838443E-19  4.4997369471146814E-18   -1.3743648134723643E-19  -1.6386102903281666E-20  -1.5541618863013775E-21  3.1653624242466394E-22   1.8774689518637964E-20   1.0362931208054482E-19
4.9999999999999996E-6     -2.1130182277773088E-21  2.0816542728851538E-19   -1.3146972281811688E-18  7.384210724731427E-19    4.175911041499627E-18    3.524796534537256E-20    -9.633780735677196E-20   -6.950286326281329E-20   1.5632785771050263E-20   1.8971130915907246E-20   1.5572271668353837E-19
5.5E-6                    -2.0149338550505916E-20  -7.0669341690273525E-19  -2.0475885288417292E-19  2.4044676111389975E-18   -1.6169038746225128E-17  3.003471846827895E-19    -8.324345077596467E-20   -1.4851203345320712E-20  8.007982315200469E-21    -8.38759431293162E-20    -4.531091614328515E-19
6.0E-6                    1.0022814802200169E-20   -9.700383254434711E-19   4.636106717950807E-18    -2.2446230703783165E-18  -3.5347813832773606E-17  -1.8160608954097411E-19  4.273344085874055E-20    3.0309590973241E-19      -6.913173050997489E-20   -8.493226884456844E-20   -6.001599049274957E-19
6.5E-6                    6.548050191944253E-20    1.8820541303369183E-18   -3.4598815075266956E-19  -1.5367257353553376E-17  1.4486263351145477E-17   -1.1186124818337151E-18  5.310463748724336E-19    1.4574949703838927E-19   -8.419519712135883E-20   2.8816587584543287E-19   1.4953311282606802E-18
7.0E-6                    -9.556829953890143E-20   4.168008010016588E-18    -2.7136362018692145E-17  -3.6938853590582706E-18  1.2621575120535174E-16   -7.86046761406766E-21    1.2176090841859537E-18   -1.2063787565177623E-18  1.9075042941042483E-19   5.240210690254947E-19    1.0202544073124599E-18
7.499999999999999E-6      -1.1413398553651555E-19  -6.616223982822789E-18   -4.6612324803852344E-17  5.620624632473962E-17    9.782457022243001E-17    6.2558567226117184E-18   -8.199756375378489E-19   -1.2465486819400362E-18  4.00139628995625E-19     -5.919945610932196E-19   -6.072071040076774E-19
8.0E-6                    8.31412132193182E-19     -2.4162426584346108E-17  -1.7954728746031016E-17  4.915684125119275E-17    -2.5905043185713916E-16  1.6174328869265563E-17   -7.382897578322486E-18   3.1222868330710603E-18   -3.1928469145794966E-19  -2.05430626506057E-18    7.310071045178389E-18
8.5E-6                    -3.2625657194343095E-19  -5.719293339112585E-18   -5.3780925158591396E-17  -1.6683800950666148E-16  -6.529880586436162E-16   3.672357601413149E-18    -1.0767117429231991E-17  4.657298367816592E-18    -1.3625597930916132E-18  2.467194331205742E-18    -5.494849369389225E-18
9.0E-6                    -6.591696674756118E-18   2.4656238931752532E-17   -5.235508393179845E-16   -3.128954417049477E-16   -3.790792984655738E-16   -7.902727987501986E-17   -3.676386589853212E-18   -9.623092917446294E-18   -3.2019995524506415E-19  1.1359215499021627E-17   -3.859755221865724E-17
9.499999999999999E-6      5.472120614226052E-19    -9.43678507863686E-17    -1.6152159906782655E-15  1.403941473241272E-16    5.235029943015329E-16    -1.7494370526231976E-16  1.3794312996805109E-18   -2.7449611282650084E-17  2.2126707172055625E-18   -8.962392531203572E-19   9.353317024141319E-17
9.999999999999999E-6      3.5247757865610957E-17   -4.1721090900945814E-16  -2.9143131182503338E-15  5.627654421977607E-16    1.8415791993476211E-16   -2.008119864535025E-17   -1.7104926748771387E-17  -1.3429353320019687E-17  5.17077918539613E-19     -1.7577891419602362E-17  3.8975634950387834E-16
1.05E-5                   6.543038372158423E-18    -8.087377239464018E-16   -5.275526063279449E-15   -1.0021191178182921E-15  -3.810501841040029E-15   4.683588589068691E-16    -9.045228570520673E-17   1.3562329661784344E-17   -6.8634964737372735E-18  8.836944482037224E-17    2.1850837548888333E-16
1.1E-5                    -1.7624626671446943E-16  -1.6748810992354436E-15  -1.4177771057243527E-14  -4.22944038272075E-15    -1.1217476684099977E-14  4.95559158175739E-16     -3.179883282259678E-16   -5.113147886762429E-17   -1.2213635478157124E-17  2.9605334640615343E-16   -3.148276486088544E-16
1.15E-5                   -1.7785375542406077E-16  -4.554886689301255E-15   -3.8209713325730636E-14  -5.0989529929901875E-15  -1.969872102541207E-14   -1.2505622840381203E-15  -8.171444393216133E-16   -2.5749438288040295E-16  -1.710163522926595E-17   2.172663992198995E-16    1.491223643583672E-15
1.2E-5                    4.64834302212105E-16     -1.1601266169670889E-14  -8.394964090551097E-14   -5.289205772063032E-15   -3.289102878209616E-14   -4.498840375527075E-15   -1.5112169903781325E-15  -4.886092655930553E-16   -4.302195800633654E-17   1.0308178158522542E-16   7.853900745115737E-15
1.2499999999999999E-5     7.225340904218594E-16    -2.663583073934561E-14   -1.62017451587609E-13    -2.0989540993392427E-14  -6.646945020840219E-14   -5.824347125272376E-15   -2.3040427349734645E-15  -7.037743295406866E-16   -1.0422638403870941E-16  2.0423310490838824E-15   1.4867038372895627E-14
1.3E-5                    -1.6132595594960865E-15  -6.129236321911392E-14   -3.04481082205734E-13    -6.876001887153387E-14   -1.377872187703294E-13   -1.9162675772431685E-15  -4.15920684748236E-15    -1.3553165114011889E-15  -2.2039660319318705E-16  7.655251188443726E-15    2.050465856614928E-14
1.35E-5                   -4.88959146226442E-15    -1.4180199548916832E-13  -5.706604364000837E-13   -1.4893187545184496E-13  -2.505973878396336E-13   1.1441308257129182E-15   -1.0580050033312875E-14  -3.3602387473694216E-15  -5.290387084093944E-16   1.444624900739269E-14    4.769666257534468E-14
1.4E-5                    -2.3202138670498412E-15  -3.0921208511311016E-13  -1.03726402255341E-12    -2.870620452230086E-13   -4.117378048773653E-13   -1.8085944573908012E-14  -2.8130752853700506E-14  -7.574250821823112E-15   -1.3180281642483492E-15  2.2193596718792766E-14   1.4243820174937031E-13
1.45E-5                   4.439005291171669E-15    -6.310727864501213E-13   -1.771511653577792E-12   -6.24438805511694E-13    -6.733831653505874E-13   -8.297874587966857E-14   -6.410406320672077E-14   -1.4847446871687097E-14  -2.8686336781933653E-15  5.01613400068918E-14     3.30429199737948E-13
1.4999999999999999E-5     -6.2345844187603055E-15  -1.260813411958577E-12   -2.757599026964962E-12   -1.43553144122492E-12    -1.115689644458772E-12   -1.9282827165430735E-13  -1.2194643089349423E-13  -2.7872477042104306E-14  -5.642376713189043E-15   1.3911535045026227E-13   6.276432067117308E-13
1.55E-5                   -5.098412049427773E-14   -2.5102964575176923E-12  -3.917851711661788E-12   -3.012756458591319E-12   -1.744213484447217E-12   -3.3347418545203766E-13  -2.071686602651505E-13   -5.4182334679954346E-14  -1.1457777047060626E-14  3.2269861195819997E-13   1.1780452525989212E-12
1.6E-5                    -1.028639613701462E-13   -4.8247610132040275E-12  -5.602587851059135E-12   -5.606638173443277E-12   -2.5059001577532497E-12  -5.55092404645006E-13    -3.637275911155373E-13   -1.0780973398700602E-13  -2.496351130375404E-14   6.20431362062279E-13     2.3358677587362456E-12
1.6499999999999998E-5     -1.2737851104877302E-13  -8.698834087219832E-12   -9.34299743126609E-12    -9.661535400315362E-12   -3.656184927007294E-12   -1.0431824191969203E-12  -7.229871726994399E-13   -2.1026619989819802E-13  -5.3735838034373464E-14  1.124254738500384E-12    4.494551440607423E-12
1.7E-5                    -1.9488399329660128E-13  -1.47465700751633E-11    -1.74660929733751E-11    -1.6107282308972255E-11  -6.201137541535338E-12   -2.080523062161652E-12   -1.4912642576240854E-12  -3.9900197556835517E-13  -1.0777037641320257E-13  2.1184248842982025E-12   7.944252470451237E-12
1.75E-5                   -4.971456341978985E-13   -2.3752269722214895E-11  -3.077834313465444E-11   -2.5926120527433126E-11  -1.161416147350632E-11   -3.96888543266757E-12    -2.8689993127612037E-12  -7.504655495671131E-13   -2.0414651432911398E-13  4.044656436755334E-12    1.3098201632333657E-11
1.8E-5                    -1.1649966037423368E-12  -3.6026337311913436E-11  -4.662991433333379E-11   -3.878628292135668E-11   -2.0558243699636175E-11  -7.092709792276046E-12   -5.082587811189691E-12   -1.4083646008118538E-12  -3.8316493720029645E-13  7.2836323396619E-12      2.0550634073326728E-11
1.85E-5                   -2.1308941335996196E-12  -5.0210706217388274E-11  -6.069840422840848E-11   -5.2214710051871473E-11  -3.178524693168143E-11   -1.203263806380147E-11   -8.62949056460641E-12    -2.5947448253797242E-12  -7.313958874149955E-13   1.2016768958847768E-11   3.028750807285321E-11
1.8999999999999998E-5     -3.358826199509769E-12   -6.32120823690594E-11    -7.122365033763175E-11   -6.308033516002567E-11   -4.274475752032536E-11   -1.9290444778900943E-11  -1.4266425500737421E-11  -4.58713544094292E-12    -1.3917977413987473E-12  1.8319690630770347E-11   4.096214390470549E-11
1.95E-5                   -5.249065257727338E-12   -7.215480068977946E-11   -7.993069827665212E-11   -7.029627628669046E-11   -5.1506900622617754E-11  -2.8494796937479027E-11  -2.204309211017641E-11   -7.647534538972376E-12   -2.544982330684315E-12   2.619788911356887E-11    5.067771650462973E-11
1.9999999999999998E-5     -8.583136369011782E-12   -7.62114289362528E-11    -8.760631948824798E-11   -7.503611355649937E-11   -5.761302008188968E-11   -3.7808214691697734E-11  -2.98998634872469E-11    -1.1886082483446596E-11  -4.3775496161811305E-12  3.532266310869319E-11    5.830435399520975E-11
2.05E-5                   -1.3829410375669105E-11  -7.580144340359118E-11   -9.023483734483593E-11   -7.743188735076842E-11   -6.065940362612853E-11   -4.446750782301552E-11   -3.396299192347096E-11   -1.709318434591245E-11   -7.071442001821351E-12   4.479393701059343E-11    6.311813333508957E-11
2.1E-5                    -2.0539355584021333E-11  -7.045881900296639E-11   -8.161889140012596E-11   -7.413456961795069E-11   -5.876707844511799E-11   -4.632841263689228E-11   -3.164694222601626E-11   -2.2667202983194183E-11  -1.0801853362482835E-11  5.327949717678539E-11    6.365997918562933E-11
2.1499999999999997E-5     -2.7631344138571522E-11  -5.86339155635658E-11    -5.955156342869979E-11   -6.072134088808557E-11   -4.968030290207342E-11   -4.304667671017277E-11   -2.473471563893087E-11   -2.7733583916871604E-11  -1.5661774018463092E-11  5.929009512237189E-11    5.86876097795893E-11
2.2E-5                    -3.432334394943829E-11   -3.934268007716197E-11   -2.757164872423704E-11   -3.602492853711685E-11   -3.346597533215616E-11   -3.570638686366694E-11   -1.7954676615823796E-11  -3.134553572029183E-11   -2.1461001223283802E-11  6.140479354220107E-11    4.9124334280865676E-11
2.2499999999999998E-5     -4.060530502225195E-11   -1.2725571231837305E-11  9.89426065621446E-12     -2.355541703681204E-12   -1.2775670538420845E-11  -2.5306857771249043E-11  -1.3436891317202057E-11  -3.257312878866749E-11   -2.7501798723943538E-11  5.876742473011054E-11    3.683938630128743E-11
2.3E-5                    -4.6569583353194824E-11  2.1140574296429613E-11   5.305692066022734E-11    3.8479231909878706E-11   1.0675923210266471E-11   -1.1780535113282361E-11  -7.707085621110122E-12   -3.053881463836452E-11   -3.2547859614372986E-11  5.154865352180251E-11    2.0917756601671843E-11
2.35E-5                   -5.1229013285528756E-11  6.31869254306694E-11     1.0685281799999523E-10   8.758814759283142E-11    3.9361811770947225E-11   5.430937201662732E-12    4.1158656530527664E-12   -2.4650307249719946E-11  -3.5111175697958175E-11  4.018696806391198E-11    -2.8692354675303598E-12
2.4E-5                    -5.220055991129386E-11   1.1535755108277434E-10   1.7615415637624375E-10   1.4713075362895185E-10   7.828900486522674E-11    2.620460083977161E-11    2.1845172727882093E-11   -1.49479156687481E-11    -3.3942100423955434E-11  2.362504146921187E-11    -3.8104255660867236E-11
2.45E-5                   -4.689519960476862E-11   1.8032453910367225E-10   2.6153095433839907E-10   2.1777785948014883E-10   1.296166435279619E-10    4.9862541328217476E-11   4.047921400712439E-11    -2.044384424077607E-12   -2.844369453052387E-11   -1.0612842879209099E-12  -8.494454639353964E-11
2.4999999999999998E-5     -3.424698487558581E-11   2.60236349505185E-10     3.593071563719134E-10    2.9866922297174484E-10   1.8970756634944332E-10   7.68575302380683E-11     5.7485190036817986E-11   1.3544371844906305E-11   -1.878093457333553E-11   -3.6551956063029305E-11  -1.41828701879249E-10
2.55E-5                   -1.5239529300488528E-11  3.540775062237476E-10    4.6453509524779477E-10   3.8798398567695764E-10   2.522082828458933E-10    1.097881755439552E-10    7.722089399591739E-11    3.201720287792452E-11    -5.66134858131577E-12    -8.321339263684662E-11   -2.0784735537916107E-10
2.6E-5                    8.445110739771321E-12    4.562712010843375E-10    5.731458651798867E-10    4.819790638971516E-10    3.1354795350164567E-10   1.5155161021236365E-10   1.0584686500099578E-10   5.406810348040926E-11    1.005624934108522E-11    -1.395990021182124E-10   -2.8218226744572705E-10
2.65E-5                   3.643779486252686E-11    5.59127263657262E-10     6.817710869756787E-10    5.749080984727847E-10    3.744883819831669E-10    2.0169586495649123E-10   1.4295583335857422E-10   8.002643945238497E-11    2.7767031979718576E-11   -2.0420091389903552E-10  -3.628353754158159E-10
2.7E-5                    7.043422824551468E-11    6.570462655112388E-10    7.86614069859585E-10     6.623372894084682E-10    4.363957930083931E-10    2.548647550485756E-10    1.8073107493738937E-10   1.0934138065114326E-10   4.7496333009864556E-11   -2.7581634379592885E-10  -4.4766044564510213E-10
2.7499999999999998E-5     1.1293997430954953E-10   7.479237188190492E-10    8.827755654956922E-10    7.441128080284812E-10    4.970603060641412E-10    3.0369751517997815E-10   2.1155113229345188E-10   1.4091544771953787E-10   7.017620815187449E-11    -3.528587651640314E-10   -5.360219964802218E-10
2.8E-5                    1.6504918301072586E-10   8.307105781005661E-10    9.640491652311191E-10    8.211112730483296E-10    5.506581802230343E-10    3.437061677221757E-10    2.3455317929847813E-10   1.7379421451762897E-10   9.753495791409979E-11    -4.335091417243121E-10   -6.277207644259005E-10
2.8499999999999998E-5     2.2513035719368943E-10   9.022968777274021E-10    1.022950932105941E-9     8.879325144338359E-10    5.911337384008677E-10    3.7514878752332444E-10   2.541538677590168E-10    2.074910119520228E-10    1.313129905941914E-10    -5.163034345214747E-10   -7.196690355906704E-10
2.9E-5                    2.896511696685122E-10    9.565174873061733E-10    1.0510984535812265E-9    9.310131536293083E-10    6.149111591948092E-10    4.0019267318043573E-10   2.7377423133040964E-10   2.417355066517341E-10    1.7204160667652467E-10   -5.994087407894712E-10   -8.042575409038114E-10
2.95E-5                   3.5565496349787413E-10   9.850034355201991E-10    1.0397198667678183E-9    9.357211847277099E-10    6.20449217544091E-10     4.189161870765438E-10    2.9209467844752813E-10   2.758316054937278E-10    2.1818962601946328E-10   -6.791141968370282E-10   -8.716012998167852E-10
2.9999999999999997E-5     4.2266846290438666E-10   9.782473390766867E-10    9.798190685940006E-10    8.939423524355256E-10    6.055471198410586E-10    4.283328325086788E-10    3.041249133672735E-10    3.079111563952482E-10    2.662984257786363E-10    -7.497021254847386E-10   -9.131095737562679E-10
3.05E-5                   4.917861847847922E-10    9.26240644805505E-10     8.621642973207139E-10    8.033073712667642E-10    5.650236172780288E-10    4.2427758421651583E-10   3.041313226494053E-10    3.344994186623372E-10    3.118508411047517E-10    -8.047919788881529E-10   -9.223503463369994E-10
3.1E-5                    5.621947938369696E-10    8.190340153829066E-10    6.778139982642082E-10    6.610217419384772E-10    4.90954320637282E-10     4.029655529087293E-10    2.878101156322601E-10    3.508246874569028E-10    3.5007562531175274E-10   -8.380248171610753E-10   -8.931083167267676E-10
3.15E-5                   6.283538624575351E-10    6.475468656867734E-10    4.193590717632425E-10    4.612491359454919E-10    3.7565537486509067E-10   3.608481706911974E-10    2.533750027391986E-10    3.5188482164167056E-10   3.763453282259819E-10    -8.423223766935374E-10   -8.181925400469661E-10
3.2E-5                    6.808215145117146E-10    4.0472428979393924E-10   8.214114749047728E-11    1.9767346247808252E-10   2.1503055096429177E-10   2.942074066872123E-10    2.0121250323284527E-10   3.33705447199993E-10     3.866469100187413E-10    -8.095176800159407E-10   -6.905576357312137E-10
3.25E-5                   7.100124832772876E-10    8.677277168292431E-11    -3.352896788893378E-10   -1.3412726357956372E-10  9.294268792869255E-12    1.9955413255761802E-10   1.3148954713020565E-10   2.940389948159214E-10    3.7859009267710126E-10   -7.316379505308836E-10   -5.043664947146738E-10
3.2999999999999996E-5     7.092148232936552E-10    -3.0657487145121207E-10  -8.312286707444791E-10   -5.363633102313689E-10   -2.3901548706350974E-10  7.405926254758072E-11    4.1429850333582286E-11   2.3208250582052254E-10   3.523693414717003E-10    -6.02373674360132E-10    -2.5428159179838585E-10
3.35E-5                   6.743650840712365E-10    -7.733630535816142E-10   -1.4005533991243685E-9   -1.0076883605455632E-9   -5.266244920581194E-10   -8.458266467616602E-11   -7.402643727272572E-11   1.4742049379902128E-10   3.1030370703342467E-10   -4.1674186499112444E-10  6.51825638512983E-11
3.4E-5                    6.01630808333746E-10     -1.310467172511736E-9    -2.0340197971899135E-9   -1.5407041245666197E-9   -8.486770626931034E-10   -2.779278665536634E-10   -2.1734047249077325E-10  3.9014074600409806E-11   2.544013746020057E-10    -1.6962748643526784E-10  4.581422919231979E-10
3.45E-5                   4.856665429207276E-10    -1.911882687569953E-9    -2.7177616231816995E-9   -2.1221606555146897E-9   -1.1974138231288383E-9   -5.052037412595423E-10   -3.8400745534637075E-10  -9.484300028218243E-11   1.8336207774647333E-10   1.4418279274804507E-10   9.244990381985348E-10
3.5E-5                    3.2013312542941755E-10   -2.5652453204129693E-9   -3.4330402608608893E-9   -2.7361325424450767E-9   -1.5631868516485053E-9   -7.611320891378115E-10   -5.642146893033976E-10   -2.5538756759906605E-10  9.143387745515652E-11    5.275333325980353E-10    1.4580673283901217E-9
3.5499999999999996E-5     9.965562392251842E-11    -3.2505082627078182E-9   -4.155489472033051E-9    -3.3653430813124237E-9   -1.9368749417443897E-9   -1.0352969307666685E-9   -7.49531913354703E-10    -4.4180926318845205E-10  -2.968097092671731E-11   9.78101649260389E-10     2.046802231590222E-9
3.6E-5                    -1.7871819289901664E-10  -3.942129063725152E-9    -4.8540705563531484E-9   -3.988319588307079E-9    -2.310006297592559E-9    -1.3143430005517472E-9   -9.372158904323773E-10   -6.502756338627097E-10   -1.869627607266891E-10   1.4879269276391618E-9    2.674504047952834E-9
3.65E-5                   -5.155426111405589E-10   -4.611771702007294E-9    -5.4915163104428675E-9   -4.576407800330609E-9    -2.6713854454399543E-9   -1.585599703412E-9       -1.1269130550097866E-9   -8.741443605332176E-10   -3.826144151669608E-10   2.0453892805036936E-9    3.3222269397929278E-9
3.7E-5                    -9.097118220828088E-10   -5.2285628241835215E-9   -6.027200287866352E-9    -5.095117817906914E-9    -3.0035268495747122E-9   -1.839036784814244E-9    -1.3135097539542946E-9   -1.1052421759345198E-9   -6.128727685784874E-10   2.6369384549518784E-9    3.967892682743255E-9
3.75E-5                   -1.3584680436907766E-9   -5.757417120378617E-9    -6.42052439234599E-9     -5.50853311110916E-9     -3.282900742173543E-9    -2.0661011087852016E-9   -1.484624118535065E-9    -1.3353977745590952E-9   -8.693703188697799E-10   3.2459491041698816E-9    4.584818183042207E-9
3.7999999999999995E-5     -1.8560332014356303E-9   -6.15820830113343E-9     -6.632007663399079E-9    -5.78187064867156E-9     -3.4841286108058814E-9   -2.2571217114400517E-9   -1.625568300045879E-9    -1.556965767695308E-9    -1.1416560483443169E-9   3.849590930545355E-9     5.141545346077962E-9
3.85E-5                   -2.391411205932436E-9    -6.38800073696596E-9     -6.622005467648642E-9    -5.88036425945552E-9     -3.584344940770184E-9    -2.3996697900348106E-9   -1.7256277330033305E-9   -1.7615998416182522E-9   -1.418885682550142E-9    4.417810960903003E-9     5.603659529571727E-9
3.9E-5                    -2.946741412469211E-9    -6.405871106415208E-9    -6.350113665059424E-9    -5.768019849684321E-9    -3.564139077142099E-9    -2.4784363811604045E-9   -1.7784790219092607E-9   -1.938169193189241E-9    -1.6899344738365109E-9   4.916785090844581E-9     5.935474258851861E-9
3.95E-5                   -3.49767899167664E-9     -6.176900215286682E-9    -5.777795044786589E-9    -5.410116449368333E-9    -3.405434684017961E-9    -2.476250804234998E-9    -1.7771989126332231E-9   -2.07190717608721E-9     -1.9431010744533895E-9   5.31380957163569E-9      6.100082370379777E-9
3.9999999999999996E-5     -4.015975856695835E-9    -5.672268966309026E-9    -4.873139934271106E-9    -4.77800590410606E-9     -3.090109053114355E-9    -2.376400210223017E-9    -1.7105320785139213E-9   -2.1459683872511017E-9   -2.1666366562408904E-9   5.578621245722287E-9     6.059384213103065E-9
4.0499999999999995E-5     -4.472373089451516E-9    -4.866747046178597E-9    -3.614516855901785E-9    -3.851419741671944E-9    -2.602293397728099E-9    -2.1657430104004236E-9   -1.564840659234651E-9    -2.1442836766197093E-9   -2.349325341828111E-9    5.680540046646538E-9     5.7762097269068666E-9
4.1E-5                    -4.837564354627818E-9    -3.737952598312095E-9    -1.9919802449009924E-9   -2.617378538791888E-9    -1.9329837626953646E-9   -1.8364375429138642E-9   -1.3294969294180457E-9   -2.0534772808636002E-9   -2.4794320362588263E-9   5.585775540223545E-9     5.217769266161154E-9
4.15E-5                   -5.08113794500045E-9     -2.2695967810652145E-9   -8.690010085190598E-12   -1.070180619403276E-9    -1.0828523198098798E-9   -1.3849394466300192E-9   -1.000492092725124E-9    -1.8628381636288254E-9   -2.5424242614317652E-9   5.258639630737893E-9     4.3580107798266234E-9
4.2E-5                    -5.170411111982333E-9    -4.569376329492912E-10   2.3157355496265965E-9    7.84592383033087E-10     -6.13037708451576E-11    -8.102468392149698E-10   -5.798337223876085E-10   -1.5634383807374306E-9   -2.520070690094721E-9    4.666084676281813E-9     3.1784593163664483E-9
4.2499999999999996E-5     -5.070818178954345E-9    1.6883432172673994E-9    4.941670773270163E-9     2.925133468685139E-9     1.1159406890414486E-9    -1.144383176324067E-10   -7.264921314696663E-11   -1.1482333354009873E-9   -2.3923166977669974E-9   3.782452901777411E-9     1.6694890686206788E-9
4.2999999999999995E-5     -4.748150581794695E-9    4.135298086374377E-9     7.808825031845747E-9     5.311795654649057E-9     2.4274457222877767E-9    6.94606761688691E-10     5.145693133093334E-10    -6.137525157371864E-10   -2.1403525380284697E-9   2.592194922472129E-9     -1.6683022158036238E-10
4.35E-5                   -4.17199867373486E-9     6.8333621805795375E-9    1.0838449255813476E-8    7.888434435507693E-9     3.844447569503129E-9     1.6013953986546861E-9    1.1730579551237032E-9    3.7824851338975514E-11   -1.74884829588863E-9     1.0905319950809411E-9    -2.3136944709231315E-9
4.4E-5                    -3.3190559524793753E-9   9.714167230448153E-9     1.3935715566743017E-8    1.0583738610265907E-8    5.329156498590279E-9     2.58365860023502E-9      1.8895283343610633E-9    7.979327535295106E-10    -1.207572461742979E-9    -7.163250523784359E-10   -4.7381133430399804E-9
4.45E-5                   -2.1747735681613126E-9   1.2693984496153325E-8    1.699124424994521E-8     1.3311920816777188E-8    6.834705273771887E-9     3.6141418095743536E-9    2.644826064416464E-9     1.6526255326129304E-9    -5.135227951247788E-10   -2.8097454922701894E-9   -7.390868091298432E-9
4.4999999999999996E-5     -7.332584616364224E-10   1.567513700452736E-8     1.9883268498286368E-8    1.5974091766496648E-8    8.306866497617536E-9     4.661011059342973E-9     3.4143948486303127E-9    2.583942145179335E-9     3.271440896152216E-10    -5.156066755502361E-9    -1.0206675658977414E-8
4.5499999999999995E-5     1.002623120756659E-9     1.854660004153028E-8     2.2480952405736004E-8    1.8460519774960933E-8    9.686875090735207E-9     5.68709864208671E-9      4.16986416993206E-9      3.5698480488326805E-9    1.299360492181629E-9     -7.704582967258796E-9    -1.3104426371063678E-8
4.6E-5                    3.018929850693503E-9     2.1185745333726107E-8    2.4647413450313613E-8    2.065334821259688E-8     1.0914464527870734E-8    6.650040001672588E-9     4.880835602268095E-9     4.582445538992689E-9     2.3817569080756457E-9    -1.0387680301175355E-8   -1.5988153982245687E-8
4.65E-5                   5.286614797475274E-9     2.3462440300420517E-8    2.624243426898139E-8     2.243058813611325E-8     1.1930176615118001E-8    7.504286090697093E-9     5.5162506601627154E-9    5.586082966582051E-9     3.549257958694749E-9     -1.3122830135091058E-8   -1.87487646655931E-8
4.7E-5                    7.758508221874799E-9     2.5244533544990232E-8    2.712743528634183E-8     2.3671994283250087E-8    1.2676726514592093E-8    8.204029025814538E-9     6.044752557854098E-9     6.537474312387221E-9     4.773392926775168E-9     -1.581502006909211E-8    -2.1266289457954543E-8
4.7499999999999996E-5     1.0369375205914691E-8    2.6402968151234118E-8    2.7173849554414663E-8    2.4265202528441036E-8    1.3100398407312445E-8    8.70572106996362E-9      6.434171980270985E-9     7.388343403108973E-9     6.020553437953268E-9     -1.8358775756635788E-8   -2.3413144975876584E-8
4.8E-5                    1.3038358416190233E-8    2.6815966401921202E-8    2.6272122085739624E-8    2.411011937748926E-8     1.3153651701453975E-8    8.969849086662588E-9     6.651908782516741E-9     8.08897327951857E-9      7.250269420836486E-9     -2.064004700144599E-8    -2.505883281001833E-8
4.85E-5                   1.5671454694198284E-8    2.6373182083135158E-8    2.433846495021709E-8     2.3122047568066294E-8    1.2798848886600494E-8    8.962371501012367E-9     6.668075394884472E-9     8.590703482897808E-9     8.41503956974675E-9      -2.253866784357482E-8    -2.6075438654639076E-8