% Model:              Untitled.mph
% Version:            COMSOL 6.0.0.405
% Date:               Jul 15 2025, 12:33
% Dimension:          1
% Nodes:              401
% Expressions:        11
% Description:        Point graph
% Time (s)                Displacement field, Y component Displacement field, Y component Displacement field, Y component Displacement field, Y component Displacement field, Y component Displacement field, Y component Displacement field, Y component Displacement field, Y component Displacement field, Y component Displacement field, Y component Displacement field, Y component
0                         -5.547348085163551E-31   1.1897846055479204E-31   -2.734216153278792E-32   5.282491207824838E-33    1.2509171922213511E-33   5.783021701192621E-34    1.7705652568541898E-34   3.672972460859704E-36    -1.2520215901296013E-33  -1.1254155378609215E-36  -2.941511399727989E-37
5.0E-7                    1.9993067392336138E-23   -1.3398848081944562E-23  2.6013532416211794E-24   -1.1997158121114025E-24  -2.6082975964422964E-25  1.4404605219169176E-25   1.666694465135455E-26    4.114360016648557E-27    1.3128853368391626E-25   8.657955858019263E-30    3.3596080665303633E-29
1.0E-6                    5.832660544650379E-22    -2.2355192370579863E-23  2.4176640938545188E-25   -1.2846222549555369E-23  4.288299664119822E-25    -1.2166152191675977E-24  -2.379656500372277E-25   -2.1309895312928807E-26  4.060172727307594E-28    1.4466314031964477E-27   6.041872092846354E-29
1.5E-6                    -3.016491486846077E-21   2.0990298450673992E-22   5.579871291378496E-23    7.465381293648085E-23    1.6250112669315538E-24   4.018439518069516E-24    1.4097158029982064E-24   1.4453113264546344E-28   -9.622663877846714E-26   -7.320132878586909E-27   -6.651459413938835E-28
2.0E-6                    5.942243448301928E-21    -4.672430734231388E-22   -1.7074985377383514E-22  1.9659693963862427E-22   -5.747561731210346E-24   -8.72728792191016E-24    -2.2463487056270433E-24  2.076413697076108E-25    -4.7820971545589095E-25  1.3143764274998718E-26   2.4963195914767656E-27
2.4999999999999998E-6     -3.6168759806738005E-21  -3.079081120028351E-22   -1.1673418699959312E-22  -9.638770107513579E-22   7.571104275149665E-24    1.7457185875836616E-24   -9.522472122816103E-25   1.6789818449515049E-25   -7.715386276588611E-24   3.530015131481234E-27    -5.4719403622639584E-27
3.0E-6                    1.60944610831965E-21     4.260195393619998E-21    1.534477587660716E-21    -1.0278076841249978E-21  1.3208198187840754E-23   5.318886998483028E-23    1.9456681954752396E-23   -1.4465344812809192E-24  2.2968076038953574E-23   -2.16578545709512E-26    6.201280156249541E-27
3.5E-6                    -2.770874650659549E-20   -5.3407912326035814E-21  -2.8104264897718045E-21  6.4614706348571745E-21   5.306870944663378E-23    -2.917028070902473E-23   8.979861818573684E-24    -1.7789054707579533E-24  -2.6129270877535695E-23  -2.0711630615549924E-26  6.746388291021223E-27
4.0E-6                    -1.8203176827541145E-20  -1.369609125173406E-20   6.221691786118948E-21    5.399382681966564E-21    2.1859555401776217E-23   -1.265542481040662E-22   -9.91263641930228E-23    6.694873030046602E-24    -1.576487504373541E-22   -1.3613168382454264E-25  -5.358605623821993E-26
4.5E-6                    2.562563157048157E-19    5.2622755592884175E-20   7.746987941294952E-21    -1.7724037545552848E-20  -3.6523978344386702E-22  -1.177168364510672E-24   -2.4878363502232623E-23  2.078009588162565E-23    -4.960142194871141E-23   2.809866020783952E-25    1.0239402326498038E-25
4.9999999999999996E-6     -2.645191163764551E-19   2.2603328643297105E-20   -1.0889262427942021E-19  -2.7318041553731985E-21  -8.552752622516321E-22   -7.530282661903658E-22   9.894568803582642E-22    2.2416771464295102E-23   6.024657166339798E-23    1.194588674184261E-24    -9.517938023371423E-27
5.5E-6                    -7.644801528367287E-19   -6.507371047061265E-20   7.359931708021554E-20    1.2101892087740168E-19   5.527017430135079E-21    1.7053198679067468E-21   2.699029024339922E-21    5.223536595674354E-24    -2.633319784831702E-21   -9.852831443687207E-25   -4.45864338421043E-25
6.0E-6                    6.967949349146442E-19    5.607908141381405E-19    8.805931464891273E-19    3.6553308791044643E-19   2.431465470412544E-20    1.746279072033742E-20    1.956630026597211E-22    -5.1391192967134347E-23  -1.3033600767783319E-20  -8.373813559370727E-24   1.3296038197089978E-24
6.5E-6                    -1.4580689568360678E-18  7.649172123680364E-19    -3.030606987743838E-19   8.255039230868659E-19    2.787448122909688E-20    9.564805124584264E-21    -1.0655341435809264E-20  -9.573867243672508E-23   -3.422230894629183E-20   -1.1430511244932641E-23  -6.935958664651353E-25
7.0E-6                    -3.3233184000239193E-18  -9.543302512532707E-20   -3.2465862014101336E-18  2.2394157360299446E-18   4.360215778041627E-20    -7.84489529398459E-20    4.0315611172822204E-21   8.157409264657498E-22    -7.435521315993557E-20   3.6186561434998926E-23   -7.579216000836593E-24
7.499999999999999E-6      4.360724906049804E-18    9.602481038579687E-18    5.079828940818765E-18    7.003660144089948E-18    3.3944771955393194E-19   -2.493109054175925E-20   1.0821959647347238E-19   3.609772338004674E-21    -2.279712181671855E-19   1.445171054005959E-22    1.59695881463742E-23
8.0E-6                    -3.61867764292333E-17    3.9246938695945124E-17   2.291981236881649E-17    1.9662441226793373E-17   1.4772889476195352E-18   6.40844988095027E-19     1.9114579780384657E-19   1.882154385373828E-21    -9.152153770480818E-19   -1.4933349399902158E-22  1.362944549017146E-23
8.5E-6                    -1.5774615425978672E-16  6.746297340143744E-17    2.1014736017969888E-17   5.422962424349132E-17    4.412258610984917E-18    1.7387967330544608E-18   -6.994811250368346E-20   -1.6044422479662404E-20  -2.9076578981750905E-18  -1.248877188491163E-21   -1.1609605117735567E-22
9.0E-6                    -1.6056498435448437E-16  1.2784290871570547E-16   6.603598241143398E-17    1.615891670538993E-16    1.108346769975341E-17    2.4467489972358543E-18   -2.658815520637294E-19   -2.1332822167338955E-20  -7.262993537873298E-18   -2.9508720791933163E-22  5.994378171820336E-23
9.499999999999999E-6      -1.0758425067593917E-16  4.815099734889204E-16    3.176210999387543E-16    4.463398958183458E-16    2.925373683620817E-17    4.027416741668493E-18    1.7677849399093013E-18   9.917172108948828E-20    -1.8843122604880965E-17  5.774728179401392E-21    4.724722651229479E-22
9.999999999999999E-6      -1.2341700914530077E-15  1.636417061864083E-15    7.194419235139271E-16    1.0596897168400908E-15   8.655834132428445E-17    1.413630790919044E-17    7.783818983518717E-18    4.1234959582131E-19      -5.683468395204752E-17   1.9663584437816486E-21   -1.3488107758400968E-21
1.05E-5                   -4.974927004437975E-15   4.341438699830268E-15    1.5787293405089897E-15   2.410180898554075E-15    2.4559040871577043E-16   5.0810707075910765E-17   1.407422540280374E-17    6.329323574835107E-19    -1.6724169376396123E-16  -3.479731961269621E-20   -3.2580454082737882E-21
1.1E-5                    -1.08332075628106E-14    1.0197633897690059E-14   5.2267261110357045E-15   5.823559228639996E-15    6.416872329779796E-16    1.3746578836306763E-16   1.529881691910123E-17    2.81290512870183E-19     -4.427548904104924E-16   -5.465645926871462E-20   6.2635633989551715E-21
1.15E-5                   -1.990849973965728E-14   2.3993962593279846E-14   1.474192914754341E-14    1.4068864544970909E-14   1.656637053160623E-15    2.9302181761551674E-16   3.18477172660879E-17     1.6982770104244925E-19   -1.1107630847607138E-15  4.029362703198407E-20    1.0719467177268962E-20
1.2E-5                    -4.6111194550291014E-14  5.94926395539985E-14     3.0694778395416564E-14   3.130922230248388E-14    4.253992202395929E-15    6.0700380565706E-16      1.3588533254102205E-16   3.939033775355763E-18    -2.7948020385929313E-15  5.270804385293019E-20    -5.0480835512595913E-20
1.2499999999999999E-5     -1.211956413999696E-13   1.4794178976276503E-13   6.090197669762588E-14    6.4663381239103E-14      1.036593421013587E-14    1.4500393321740947E-15   3.9491849650567306E-16   1.471458445534946E-17    -7.005384026455238E-15   -5.933594358898522E-19   -1.2100288677460173E-19
1.3E-5                    -2.837463798797289E-13   3.4564698317243057E-13   1.4402755956978457E-13   1.2947303350007115E-13   2.3946411030342097E-14   3.4816558109195087E-15   7.581489956935109E-16    2.599416805422687E-17    -1.6943094321800903E-14  -1.7901426948869383E-18  3.671411268692471E-20
1.35E-5                   -5.835175017926711E-13   7.512405934664724E-13    3.4588240415269235E-13   2.531711557013051E-13    5.4286727557508446E-14   7.263516814341815E-15    1.2031425441295066E-15   2.2566537166145474E-17   -3.923722246240503E-14   -2.280851537535726E-18   1.7581108883406982E-19
1.4E-5                    -1.1483695024011688E-12  1.565702836034937E-12    7.201856862776848E-13    4.714780332142825E-13    1.2221082868084756E-13   1.3854317264459162E-14   2.2630052903742046E-15   6.258415270738506E-18    -8.815203978043186E-14   -3.625498006948771E-18   -9.452926444138873E-19
1.45E-5                   -2.272549476506694E-12   3.1917572956370716E-12   1.3510929384274065E-12   8.265482367941983E-13    2.695237705215467E-13    2.7730843153077454E-14   4.958939734618099E-15    5.4026693793419905E-18   -1.939499690714163E-13   -1.5441305175025568E-17  -3.542239471168856E-18
1.4999999999999999E-5     -4.401011833880735E-12   6.274939760684224E-12    2.5586471547006447E-12   1.3786025243058132E-12   5.769307293002685E-13    5.842456288783513E-14    9.149614607198155E-15    -6.960302496303286E-18   -4.160917633454074E-13   -5.011356273548595E-17   -4.659880328398127E-18
1.55E-5                   -8.046763169893214E-12   1.1608865446869668E-11   5.0287048294521225E-12   2.2100345016719964E-12   1.1946110566786717E-12   1.1591783415498746E-13   1.2415779262782447E-14   -2.0768414181510867E-16  -8.609243180882913E-13   -1.126749667282955E-16   -4.8542679498342125E-18
1.6E-5                    -1.3922765347948228E-11  1.999938276768931E-11    9.555843150587447E-12    3.426258215585937E-12    2.3729950427974788E-12   2.087565971158469E-13    1.331558064503735E-14    -7.298558426012722E-16   -1.7032352457712348E-12  -2.2805918339830574E-16  -2.0989697567627433E-17
1.6499999999999998E-5     -2.3245812049328137E-11  3.2121800774909E-11      1.669459351274888E-11    5.299841354742653E-12    4.480203574626592E-12    3.6355121322162597E-13   1.6382465266678607E-14   -1.1241014762674283E-15  -3.2107839485427223E-12  -5.282498090711033E-16   -7.892038321560515E-17
1.7E-5                    -3.739301241416084E-11   4.802140278409032E-11    2.6942639226590678E-11   8.664948757748565E-12    8.014559246839991E-12    6.545594538695918E-13    2.980309202668287E-14    -1.5391144634273162E-16  -5.762422382991171E-12   -1.327296856068187E-15   -1.8301645520508491E-16
1.75E-5                   -5.640084115834366E-11   6.61583435867813E-11     4.096928201655241E-11    1.508955922418223E-11    1.355181743100854E-11    1.1978807798854648E-12   5.844816363651904E-14    3.587235533701074E-15    -9.81253918312567E-12    -3.1209490341692227E-15  -3.4007000130545477E-16
1.8E-5                    -7.770951327243369E-11   8.31876708017571E-11     5.842632996414644E-11    2.5852843644693644E-11   2.1393049498224582E-11   2.122114185262248E-12    1.1407481465972124E-13   1.1962518826767132E-14   -1.5703184613858456E-11  -6.7215509474786676E-15  -7.095975348360943E-16
1.85E-5                   -9.728789408148845E-11   9.580344287507225E-11    7.586021370326913E-11    3.978378057280246E-11    3.081465073005326E-11    3.6317595201653006E-12   2.5061101080117237E-13   3.1583637950352286E-14   -2.329012016826062E-11   -1.3986577511992394E-14  -1.7584614325253728E-15
1.8999999999999998E-5     -1.1243410855826202E-10  1.0319207516666442E-10   8.722639821347632E-11    5.230016787252095E-11    3.957876563362241E-11    6.195086225664529E-12    5.894101433854747E-13    8.039901768097067E-14    -3.1629417584192564E-11  -2.925770502062792E-14   -4.202561645269937E-15
1.95E-5                   -1.2258170681576265E-10  1.0656048460620355E-10   8.850523119360098E-11    5.81537456014434E-11     4.484340497347058E-11    1.0581859659416314E-11   1.2975046828053475E-12   1.858233330749371E-13    -3.9168168400067824E-11  -6.090283508157746E-14   -8.952740939389323E-15
1.9999999999999998E-5     -1.26755980672464E-10    1.056240493550964E-10    8.163471706135936E-11    5.6239622315294294E-11   4.536523359155294E-11    1.7408334567730042E-11   2.5381883746622478E-12   3.6505373276951476E-13   -4.446138920816821E-11   -1.226218556603601E-13   -1.790656993752991E-14
2.05E-5                   -1.2156336284051862E-10  9.694412537977483E-11    7.21965283349976E-11     5.075792933896152E-11    4.266499991118559E-11    2.6380264401795526E-11   4.430988721684848E-12    6.019675144915336E-13    -4.6659321706253896E-11  -2.361339858207828E-13   -3.6050567652796454E-14
2.1E-5                    -1.0347192465367032E-10  7.69009102470472E-11     6.325635367818293E-11    4.602088142516421E-11    3.8983119472131095E-11   3.600139306468851E-11    7.002477792080059E-12    8.647463642916489E-13    -4.51580194083765E-11    -4.3803144841456763E-13  -7.373216083578E-14
2.1499999999999997E-5     -7.280051003450704E-11   4.49665274812963E-11     5.2768459846489436E-11   4.0516708101244424E-11   3.367014502775014E-11    4.417989700500663E-11    1.0119889817832839E-11   1.201454103101355E-12    -3.915456667494066E-11   -7.899309997101681E-13   -1.4743028792113643E-13
2.2E-5                    -3.345996778251449E-11   2.2885569502969857E-12   3.582538712631344E-11    2.812907529363049E-11    2.2716575631822243E-11   4.912566806496285E-11    1.3519751468201637E-11   1.8800691309388854E-12   -2.8278419105844044E-11  -1.3838552203623883E-12  -2.803830738169775E-13
2.2499999999999998E-5     1.2623975472264713E-11   -5.233524762330952E-11   6.439755992347316E-12    5.585395779852853E-12    3.2098212895060956E-12   4.962581463079877E-11    1.700817647536952E-11    3.4372088871065535E-12   -1.3557900714249819E-11  -2.3329832857870106E-12  -5.084044202646755E-13
2.3E-5                    7.061407058644161E-11    -1.235527433672041E-10   -4.237773477892771E-11   -2.350131814553312E-11   -2.2089953557674917E-11  4.477130188337594E-11    2.0576823497298124E-11   6.461859486521615E-12    3.449415507465124E-12    -3.7451284692555915E-12  -8.930870544700735E-13
2.35E-5                   1.510839409198129E-10    -2.1638272456911027E-10  -1.1575308125218924E-10  -5.341833259453999E-11   -4.6499037760998183E-11  3.4022452167497595E-11   2.4028708661786916E-11   1.1075873857638906E-11   2.315101779537107E-11    -5.6777093091205145E-12  -1.5313406663236917E-12
2.4E-5                    2.617164452473922E-10    -3.3199811411262703E-10  -2.1162079823553526E-10  -8.36095064674476E-11    -6.695557759329982E-11   1.778187752572696E-11    2.62830641277263E-11     1.6387314063592784E-11   4.857878795962514E-11    -8.059317719776686E-12   -2.5401547947820698E-12
2.45E-5                   3.9994706209618484E-10   -4.65672857473285E-10    -3.2017040450355606E-10  -1.1928863067335245E-10  -8.897018221432381E-11   -2.5463200649248958E-12  2.5319666173701683E-11   2.0457980838201E-11      8.253872138104416E-11    -1.0574129500505055E-11  -4.008197986452479E-12
2.4999999999999998E-5     5.546119209422749E-10    -6.091130016373666E-10   -4.306172943810599E-10   -1.6577807943761184E-10  -1.2230419213524338E-10  -2.5681892306363063E-11  1.943500552557523E-11    2.115545935086082E-11    1.246842340173816E-10    -1.2590090973236556E-11  -5.9361887782767755E-12
2.55E-5                   7.15385549176168E-10     -7.562227076948188E-10   -5.384088860534691E-10   -2.244013074654337E-10   -1.7138437209417963E-10  -5.185482151900685E-11   8.913638868436958E-12    1.7533054771298586E-11   1.7229567882792338E-10   -1.3290926294937821E-11  -8.198990883323863E-12
2.6E-5                    8.792065614011421E-10    -9.063231155059557E-10   -6.464523822120642E-10   -2.936179851763435E-10   -2.3133107629878223E-10  -8.297890152212037E-11   -3.833893802602964E-12   1.0646391712917231E-11   2.2323748277282996E-10   -1.204926578570218E-11   -1.053586021352791E-11
2.65E-5                   1.0465705460033214E-9    -1.0598233916310465E-9   -7.611273141970344E-10   -3.7141611448412603E-10  -2.938849015400007E-10   -1.2138290728290846E-10  -1.635651889431744E-11   2.8621069390754754E-12   2.770087184984963E-10    -8.763858969710847E-12   -1.255534201638667E-11
2.7E-5                    1.2140498673202018E-9    -1.210600794304091E-9    -8.860404828272099E-10   -4.54965135471261E-10    -3.550639504949438E-10   -1.6815277513908296E-10  -2.8560847659182777E-11  -4.052068621008109E-12   3.3338875312572284E-10   -3.790959517951972E-12   -1.3772995252759307E-11
2.7499999999999998E-5     1.3732985936557937E-9    -1.3446083753965465E-9   -1.0155416196786298E-9   -5.391069940809791E-10   -4.148988078403851E-10   -2.221404428766849E-10   -4.276459703066986E-11   -1.0482040177081884E-11  3.91155431312752E-10     2.4692633629517806E-12   -1.3726873239570943E-11
2.8E-5                    1.5155843436636147E-9    -1.4467701594471634E-9   -1.1324907429037483E-9   -6.170349153962327E-10   -4.71467603007128E-10    -2.8012648397992387E-10  -6.126079756938084E-11   -1.86677507028973E-11    4.4773643854509183E-10   9.805119644030932E-12    -1.2138568225474208E-11
2.8499999999999998E-5     1.6328349490457506E-9    -1.5077084930425097E-9   -1.2146042306138486E-9   -6.827818893879364E-10   -5.19272274138747E-10    -3.381836481427511E-10   -8.42057715638174E-11    -3.067811845245737E-11   4.991084532555372E-10    1.800550304819555E-11    -8.964309611423067E-12
2.9E-5                    1.7133607748495776E-9    -1.5221514829813564E-9   -1.2450406725825542E-9   -7.323820542941078E-10   -5.541443221832446E-10   -3.9348616474341295E-10  -1.1018165261491096E-10  -4.64642794700212E-11    5.403037722683518E-10    2.67614010498528E-11     -4.218638908043541E-12
2.95E-5                   1.7395273662795027E-9    -1.4812341086534535E-9   -1.2168874965447398E-9   -7.624618095775736E-10   -5.762620576221619E-10   -4.44905693226569E-10    -1.3829642497357636E-10  -6.374624781343109E-11   5.66691063298987E-10     3.609477498011823E-11    2.3078171416795168E-12
2.9999999999999997E-5     1.6911702758540114E-9    -1.3684998071810102E-9   -1.1288084336518322E-9   -7.682547211735421E-10   -5.862569882133119E-10   -4.913569380477562E-10   -1.687710644397814E-10   -7.96779939919438E-11    5.743381185639652E-10    4.66895881531684E-11     1.1146021996886955E-11
3.05E-5                   1.5499982610512408E-9    -1.1650292344111585E-9   -9.793400489648652E-10   -7.433661213448053E-10   -5.801151829612465E-10   -5.291409096798873E-10   -2.012490754142922E-10   -9.259092256565919E-11   5.587335387823534E-10    5.917877019556925E-11    2.2893654353419334E-11
3.1E-5                    1.3004877245976401E-9    -8.577706470264756E-10   -7.647504988812737E-10   -6.812385298399473E-10   -5.492830329462906E-10   -5.509159101165923E-10   -2.333291960677388E-10   -1.0238492765739804E-10  5.141262617800343E-10    7.28572972866649E-11     3.770907990588824E-11
3.15E-5                   9.293295146676758E-10    -4.4119347385047556E-10  -4.773254303304576E-10   -5.764499779728633E-10   -4.843763813063491E-10   -5.475269754515718E-10   -2.6142861020752205E-10  -1.0977412771142091E-10  4.35066610291938E-10     8.552015463562976E-11    5.483914263928065E-11
3.2E-5                    4.2704413698428254E-10   8.839551892876767E-11    -1.0346831015308752E-10  -4.2463871019774377E-10  -3.782697151842258E-10   -5.112675066705077E-10   -2.8265424846288073E-10  -1.155169911953572E-10   3.181545630699273E-10    9.495363046164173E-11    7.255699153742092E-11
3.25E-5                   -2.093548462764779E-10   7.364277329761163E-10    3.718402143335731E-10    -2.2163234029389287E-10  -2.2787631533487414E-10  -4.3795593392782156E-10  -2.949057162113198E-10   -1.201398527589891E-10   1.6176248326022814E-10   1.0041392347137674E-10   8.881355863312962E-11
3.2999999999999996E-5     -9.765890774425297E-10   1.5053917057846236E-9    9.532079111830983E-10    3.7061272621633626E-11   -3.429097641766319E-11   -3.2625392735225464E-10  -2.95088848139011E-10    -1.238078494689215E-10   -3.5264708588812467E-11  1.0246561626229158E-10   1.0238446326437232E-10
3.35E-5                   -1.868497817513869E-9    2.3876746078270577E-9    1.6273165574608513E-9    3.558281380274522E-10    2.0033011736322277E-10   -1.7492599672279016E-10  -2.782914840947343E-10   -1.2609107960811903E-10  -2.7387538895923854E-10  1.0175742364274848E-10   1.1355323953414786E-10
3.4E-5                    -2.8773621815338798E-9   3.364704740063266E-9     2.369305263553088E-9     7.371894479755894E-10    4.76820850656005E-10     1.9245403534723702E-11   -2.398019658668338E-10   -1.2578892516543194E-10  -5.540775858290926E-10   9.829967301701385E-11    1.2344696430549181E-10
3.45E-5                   -3.988907499938511E-9    4.4111188693293915E-9    3.155768129924136E-9     1.1786266698982232E-9    7.981470041288214E-10    2.602553788464518E-10    -1.7813297372813355E-10  -1.208246630988552E-10   -8.742980005770402E-10   9.142832547817026E-11    1.3244141739578955E-10
3.5E-5                    -5.174920800759464E-9    5.495595970190765E-9     3.969792071452199E-9     1.6699411232161063E-9    1.1634681711483443E-9    5.487580589739916E-10    -9.561338756421668E-11   -1.081022257029815E-10   -1.230874215242266E-9    7.96445957126732E-11     1.3918603438846688E-10
3.5499999999999996E-5     -6.392272392898997E-9    6.5771049293101055E-9    4.795052433723375E-9     2.1945630590417265E-9    1.5644349323232068E-9    8.787910157429972E-10    4.3506028052367484E-12   -8.380180387487926E-11   -1.617225364441401E-9    6.051430245356371E-11    1.4118235082546152E-10
3.6E-5                    -7.589984343984034E-9    7.60437942485315E-9      5.607816728490678E-9     2.734947033241464E-9     1.9880105579321213E-9    1.2386573239168472E-9    1.2070619349371067E-10   -4.478593070850497E-11   -2.0229596916384416E-9   3.15426816577936E-11     1.3615066872037726E-10
3.65E-5                   -8.715611856898822E-9    8.521743264006163E-9     6.3734378888922895E-9    3.276495393960936E-9     2.421226033046182E-9     1.614919288705127E-9     2.5568259047346143E-10   9.533436133484188E-12    -2.43347431604121E-9     -8.353371644937866E-12   1.2277844585188202E-10
3.7E-5                    -9.714084634758441E-9    9.273992416101987E-9     7.046709149172742E-9     3.804596456837937E-9     2.851970195875679E-9     1.9953303300145054E-9    4.1255239726031337E-10   7.682749570828435E-11    -2.830286227603425E-9    -5.836815835023146E-11   1.004257784786657E-10
3.75E-5                   -1.052358215153928E-8    9.804856914005114E-9     7.574582233406386E-9     4.297282088412783E-9     3.266072809024437E-9     2.368350346130589E-9     5.920722543224556E-10    1.53802539218368E-10     -3.192247830910971E-9    -1.1679233380583063E-10  6.842169172605678E-11
3.7999999999999995E-5     -1.1076343699100398E-8   1.0053793286591623E-8    7.90102623908686E-9      4.7222329171659E-9       3.644221132929153E-9     2.720835072148441E-9     7.898982012948359E-10    2.3853615660995147E-10   -3.4974924448695364E-9   -1.8208282512225285E-10  2.5598075434193838E-11
3.85E-5                   -1.1303585166330156E-8   9.95710723134512E-9      7.971539612226319E-9     5.042585851172186E-9     3.960692348234632E-9     3.0365037858481623E-9    9.964069706342891E-10    3.305704750399498E-10    -3.7249221224983426E-9   -2.5284790128162037E-10  -2.973278797240475E-11
3.9E-5                    -1.1137986533148807E-8   9.4523611212319E-9       7.73430576649504E-9      5.2256684339256905E-9    4.185050813760663E-9     3.2956359967835656E-9    1.1992907248179573E-9    4.287554159193409E-10    -3.853782956753744E-9    -3.272689370038751E-10   -9.927523404204287E-11
3.95E-5                   -1.0512821788347655E-8   8.483465950185817E-9     7.1399896086024755E-9    5.2451581384317145E-9    4.287437536914723E-9     3.4750390023956525E-9    1.3876754810377893E-9    5.294680711743564E-10    -3.861804565816009E-9    -4.0300577494116506E-10  -1.8370308213998432E-10
3.9999999999999996E-5     -9.363677783648757E-9    7.006895143074382E-9     6.145049188421893E-9     5.075209324073134E-9     4.244126829660353E-9     3.548347828003102E-9     1.5545587495249178E-9    6.271528566024267E-10    -3.724611872869947E-9    -4.77516435073074E-10    -2.8149047602362735E-10
4.0499999999999995E-5     -7.63668664802021E-9     4.99728177780757E-9      4.718328117024816E-9     4.685246814442715E-9     4.037309030807766E-9     3.487727718962677E-9     1.6946329842059055E-9    7.162699665108783E-10    -3.418223925516112E-9    -5.479225112538432E-10   -3.8853858865767525E-10
4.1E-5                    -5.299669763967744E-9    2.4479082509823766E-9    2.8452647167400648E-9    4.0436628295990995E-9    3.6488122631703666E-9    3.2670204119448382E-9    1.7986851531356676E-9    7.923978273785434E-10    -2.9229613861080492E-9   -6.102200125865182E-10   -4.993236447914855E-10
4.15E-5                   -2.3486576219027836E-9   -6.324349641581827E-10   5.274841799965342E-10    3.1277851566286893E-9    3.0562655241870358E-9    2.8647687404114223E-9    1.8502068081022248E-9    8.516375560261274E-10    -2.2257278872852402E-9   -6.587414580037054E-10   -6.090975262518747E-10
4.2E-5                    1.1938556672721434E-9    -4.218077335684251E-9    -2.2170517888696434E-9   1.929747857506542E-9     2.238871056318732E-9     2.2656887086074523E-9    1.8287952109367515E-9    8.893881686939085E-10    -1.3202978695052154E-9   -6.868126732470757E-10   -7.152563740472593E-10
4.2499999999999996E-5     5.284129011225542E-9     -8.257682775813791E-9    -5.348713565632767E-9    4.530514618934344E-10    1.188093244111783E-9     1.4608186186453213E-9    1.7182306658172246E-9    8.998129006090605E-10    -2.0760696359595357E-10  -6.883577676498227E-10   -8.160882702347215E-10
4.2999999999999995E-5     9.857179852465526E-9     -1.2665766432211552E-8   -8.7999499643152E-9      -1.2940117922182995E-9   -8.857940736697353E-11   4.4774408378664257E-10   1.5119531097535886E-9    8.762482295242466E-10    1.103319704845545E-9     -6.590672067206089E-10   -9.075220488578913E-10
4.35E-5                   1.4819538568682939E-8    -1.7322803837729858E-8   -1.2476812430318565E-8   -3.298495717016741E-9    -1.5748345660936624E-9   -7.680834738175122E-10   1.2111118597655414E-9    8.120187437812413E-10    2.5949384976590835E-9    -5.960508439990897E-10   -9.810769285590703E-10
4.4E-5                    2.004254684658462E-8     -2.2082837746147208E-8   -1.6269049919844224E-8   -5.535113528120031E-9    -3.2540474332243197E-9   -2.171205740269326E-9    8.177751991616772E-10    7.012063946201859E-10    4.241037779574644E-9     -4.965380315316077E-10   -1.0255327853034545E-9
4.45E-5                   2.536384963474366E-8     -2.678101941801747E-8    -2.005846675551165E-8    -7.958513710997149E-9    -5.107149569497147E-9    -3.7344492332952784E-9   3.301980077691706E-10    5.393220531223051E-10    6.005415267644065E-9     -3.573457632903343E-10   -1.0309265193017947E-9
4.4999999999999996E-5     3.059491624548565E-8     -3.123622190921566E-8    -2.371606889647804E-8    -1.0502820924165174E-8   -7.1008483510676625E-9   -5.418724718343822E-9    -2.556943469889284E-10   3.240251556126083E-10    7.840326461899784E-9     -1.760346248401627E-10   -9.90840945434464E-10
4.5499999999999995E-5     3.5526940906217566E-8    -3.5250644668619686E-8   -2.7091969613213074E-8   -1.308744526313919E-8    -9.180082837061561E-9    -7.1740997574187966E-9   -9.404442411513674E-10   5.5943286983641386E-11   9.687534032831228E-9     4.7212497138705424E-11   -9.010345190029877E-10
4.6E-5                    3.9933106772442854E-8    -3.8611944904402374E-8   -3.001203006076237E-8    -1.5622630301446087E-8   -1.1274759079648526E-8   -8.940785743081919E-9    -1.715755628180415E-9    -2.607181701413716E-10   1.1481718598363783E-8    3.0867588763012543E-10   -7.567356442424065E-10
4.65E-5                   4.35727029513213E-8      -4.110111758549516E-8    -3.228918118795854E-8    -1.801110843964482E-8    -1.3313817776956642E-8   -1.0649282835025255E-8   -2.5629513272894553E-9   -6.183877657834008E-10   1.3152696212516946E-8    6.017088583126624E-10    -5.52095530173508E-10
4.7E-5                    4.620164503699055E-8     -4.2504051590160195E-8   -3.374247818036105E-8    -2.014823246830146E-8    -1.52307014315006E-8     -1.2220798342249659E-8   -3.4548157229087238E-9   -1.007347603470139E-9    1.4625376552251609E-8    9.180556612978667E-10    -2.823695618539083E-10
4.7499999999999996E-5     4.758679430759404E-8     -4.262252910539798E-8    -3.421065619512776E-8    -2.192403886860312E-8    -1.695506310922379E-8    -1.3569677201507179E-8   -4.358550835477628E-9    -1.4170748802955336E-9   1.5820586583743645E-8    1.2488726923036581E-9    5.3473627245062594E-11
4.8E-5                    4.751778868821395E-8     -4.1283692136404275E-8   -3.3555141466234437E-8   -2.322686921976101E-8    -1.840243493572239E-8    -1.4607730805495243E-8   -5.2380580892260625E-9   -1.8364399455163232E-9   1.665858033250819E-8     1.5849684942584524E-9    4.5168722914154967E-10
4.85E-5                   4.581431707997553E-8     -3.835034893172387E-8    -3.165904634460881E-8    -2.3946088008033922E-8   -1.9475513857885443E-8   -1.52483789796306E-8     -6.055017072681638E-9    -2.2526387614370043E-9   1.7062922126096376E-8    1.9160463863236165E-9    9.042159340973072E-10