% Model:              analysis.mph
% Version:            COMSOL 6.0.0.405
% Date:               Jul 11 2023, 09:25
% Dimension:          1
% Nodes:              10001
% Expressions:        11
% Description:        Point graph
% Time (s)                Displacement field, Y component Displacement field, Y component Displacement field, Y component Displacement field, Y component Displacement field, Y component Displacement field, Y component Displacement field, Y component Displacement field, Y component Displacement field, Y component Displacement field, Y component Displacement field, Y component
0                         0                        0                        0                        0                        0                        0                        0                        0                        0                        0                        0
1.0E-6                    1.0859397172446265E-44   6.98039439951811E-45     -3.0828245963428863E-44  -8.511670741828205E-45   -1.4988698552260921E-44  -4.935456384901978E-45   -1.8332454423313362E-46  1.177403530525257E-47    -2.8654221457647207E-48  -1.601439133708121E-50   -2.2466031869807703E-50
2.0E-6                    -3.6422146304472634E-44  1.4573408076936266E-45   5.5375936816901485E-43   1.5689700095475025E-43   2.218705111202177E-43    6.553572814246755E-44    2.0520698663490438E-45   -1.3600716276394533E-46  2.8606907330507527E-47   -5.002200302575219E-49   9.586660611093867E-50
3.0E-6                    -1.0649807428720528E-42  -8.035685096407622E-43   -4.092494225931722E-42   -1.1953482754502855E-42  -1.4981368239840343E-42  -3.809942425336769E-43   -2.6032378688903346E-44  6.914991513721381E-46    -2.4005172586534382E-46  3.040627423027691E-48    -4.306353042254249E-50
4.0E-6                    9.097258665034032E-42    5.127891600539054E-42    1.0203612967207585E-41   3.424291447609343E-42    3.653182452109854E-42    7.1146327437395586E-43   1.6289417887562919E-43   -2.3921884176679894E-45  1.321029153637095E-45    8.350675842271677E-48    9.63576343538504E-49
4.9999999999999996E-6     -3.233797500313929E-41   -1.503478958466084E-41   8.654334988057617E-42    5.663037445749664E-43    4.3572845881221707E-42   1.7467336578027117E-42   -4.2818531935326455E-43  4.0626727277108994E-45   -5.250143244786734E-45   -1.8209166795406665E-46  -2.8282814529159314E-47
6.0E-6                    3.3186668966507126E-41   1.7227169450880092E-41   -7.791963430160291E-41   -2.5351067849353055E-41  -3.797526674494517E-41   -8.795939906188561E-42   -3.142549078580961E-43   7.738366686788503E-45    1.097335932830404E-44    7.645843872842775E-46    1.6032304779766727E-46
7.0E-6                    1.8312408815539331E-40   4.3542929356151624E-41   3.8176770824692556E-41   3.832751788952927E-41    3.0103393152464056E-41   2.025409497740946E-42    4.385268449709851E-42    -6.955438200258647E-44   7.741768805230797E-45    -7.856271606979338E-46   -3.063169643292237E-46
8.0E-6                    -7.21489091244454E-40    -2.1842633593380638E-40  3.0489618125470347E-40   7.234114671974516E-41    1.670685479146569E-40    4.092992978178321E-41    -5.907257818810356E-42   1.9868836079086048E-43   -1.051092712732278E-43   -3.5234544420606857E-45  -4.348277208481734E-46
9.0E-6                    1.3211962386407508E-40   1.983032106891185E-40    -1.9115176323120866E-40  -2.160428974526864E-40   -2.574328801815204E-40   -3.6630677322891955E-41  -1.735443877025725E-41   -1.8394438772401627E-43  2.0873696287739152E-43   1.2290758140443494E-44   3.154795681460881E-45
9.999999999999999E-6      4.28570097877184E-39     7.572835223758313E-40    -1.3828161818825986E-39  -1.3023650400191648E-40  -5.385022357732597E-40   -1.2896217032221206E-40  5.019343123263023E-41    -6.399999078183682E-43   1.4098453562995164E-43   -4.683457043778049E-45   -4.1355439418759877E-45
1.1E-5                    -5.5625942636506124E-39  -1.2099547075698452E-39  9.557767375848445E-40    7.61612934857495E-40     1.0871820388651491E-39   1.6145120348288982E-40   3.8514025652613574E-41   2.104442101214764E-42    -1.3413280986291202E-42  -5.355369470764067E-44   -8.463501464303451E-45
1.2E-5                    -1.743583137264207E-38   -3.486833724177738E-39   6.488259567582862E-39    1.9204401308949208E-40   1.4482408284088095E-39   3.012703164174611E-40    -2.538724980959838E-40   -3.1891085403845774E-43  1.5489116448184005E-42   1.1444447770498143E-43   3.2518119644273207E-44
1.3E-5                    3.915722022758927E-38    4.4609249869229954E-39   -5.235659543659776E-39   -2.2492927356303882E-39  -3.309347181006812E-39   -4.862085071214224E-40   -2.9545256225577237E-41  -5.860719104887653E-42   3.8851588026782726E-42   5.980002994481741E-44    -1.2576735024686654E-44
1.4E-5                    5.820539196299075E-38    2.4570594758535853E-38   -2.64711188328657E-38    -4.737002821004032E-40   -2.9832088825129466E-39  -4.123581927263317E-40   1.073691500195644E-39    2.1942476558383922E-42   -1.126242380951464E-41   -5.930526681824461E-43   -1.0318716635041158E-43
1.4999999999999999E-5     -2.0249481460547836E-37  -2.679672652757398E-38   1.638324321400564E-38    6.317650575002282E-39    8.209828415012557E-39    1.3217527696699515E-39   -1.3702039874920234E-40  2.7855190228742283E-42   -3.25610638907562E-42    6.1261722861909E-43      1.7704350701716826E-43
1.6E-5                    -1.6750208860316823E-37  -1.4323237670167723E-37  9.233343091947675E-38    3.896295782463463E-39    2.4403416384289715E-39   -4.130480205198348E-40   -4.1987380888477114E-39  3.5129353524919313E-41   4.3188326977759053E-41   1.587928007512671E-42    9.277209586084834E-44
1.7E-5                    9.1177162972701E-37      1.7208999087521976E-37   1.5843211648201948E-39   -1.7472612176509708E-38  -1.9521501893136525E-38  -4.012671259792816E-39   4.753233465683432E-40    2.9781637677592777E-41   -2.898795040464056E-41   -4.589227020272698E-42   -7.1524485903277145E-43
1.8E-5                    4.495774941947282E-37    6.6249857365019855E-37   -2.4472074583260275E-37  -3.08464360956724E-38    1.439088488932877E-38    4.5654990939284934E-39   1.534644881684416E-38    -3.3495557987609858E-40  -1.1290746620248993E-40  -8.332301089191945E-43   7.63948516210367E-43
1.8999999999999998E-5     -3.735553765704884E-36   -8.576622551492425E-37   -2.7710796767716945E-37  3.711623908511011E-38    5.690151747517957E-38    1.2904896140521214E-38   1.16050798784921E-39     -7.234111060875989E-41   2.133733690428479E-40    1.899468292257974E-41    1.661242855726878E-42
1.9999999999999998E-5     -1.439284348870893E-36   -2.636550169192509E-36   2.5864346160446055E-37   1.6396520458589558E-37   -9.116270704905869E-38   -1.689085112914349E-38   -5.148359784403017E-38   1.6707839104974735E-39   2.04516941524786E-40     -1.4842208841326811E-41  -4.99862623988545E-42
2.1E-5                    1.3945334654801986E-35   3.3238352942504635E-36   1.4136599654664965E-36   9.028912097348761E-39    -2.2040961524546082E-37  -3.76360748384463E-38    -1.871823996368506E-38   -3.5987748598874163E-40  -9.962953631799183E-40   -5.712333006597115E-41   -1.2392638897777427E-42
2.2E-5                    6.50637065145227E-36     9.555794149141905E-36    1.6216997596924326E-36   -5.735956139774227E-37   2.9191444050897417E-37   5.33600213035787E-38     1.5675276894615164E-37   -6.190595713938964E-39   -2.7008084936437768E-40  9.64424268213616E-41     1.8127600970227434E-41
2.3E-5                    -4.6601291041480184E-35  -1.0242028846877271E-35  -3.5481589323006204E-36  -5.223598624093784E-37   9.198364300442559E-37    1.0847637102873379E-37   1.1414890016190747E-37   4.402735613275473E-39    3.765667385618531E-39    1.3389122687506992E-40   -1.0903135826886437E-41
2.4E-5                    -3.274836284537395E-35   -3.2241787916348175E-35  -1.1851498014904933E-35  1.1882659999494143E-36   -3.5543739666294912E-37  -1.7028932820264861E-37  -4.304057672242075E-37   2.0291139469120857E-38   6.624821453514971E-40    -4.220172830790623E-40   -4.674639213829891E-41
2.4999999999999998E-5     1.353065449581621E-34    2.4223772035544876E-35   1.2244633204067376E-36   2.4322286902642637E-36   -3.21805170319206E-36    -3.814453146569922E-37   -5.260096250688559E-37   -2.60547923926947E-38    -1.1712725646262722E-38  -2.7873836057685912E-40  8.160771117597325E-41
2.6E-5                    1.47291571846152E-34     1.0070534325159303E-34   4.6405664463308846E-35   -5.250697877689015E-37   -2.008792470378187E-36   4.188764782544968E-37    1.019478237563796E-36    -6.918747354728017E-38   -3.665824896894367E-39   1.5685258576454878E-39   9.074039008026502E-41
2.7E-5                    -3.2419924329470784E-34  -3.442915677361608E-35   3.285371201559148E-35    -5.908438930764282E-36   7.376873369487729E-36    1.400636189201056E-36    2.0638072361783032E-36   1.0906049468563663E-37   2.917026718243718E-38    8.154124236300533E-40    -3.934701866097581E-40
2.8E-5                    -5.53985045317405E-34    -2.8344560022819873E-34  -1.3396227633441903E-34  -4.952353377283436E-36   1.4202951066860357E-35   -3.446533891816354E-37   -1.7125704840016366E-36  2.5856481480608306E-37   1.4194963972681139E-38   -5.0243825678910733E-39  -1.5811644932019778E-40
2.9E-5                    5.643726162988334E-34    -3.663614527058241E-35   -1.918124820270369E-34   6.302852917071094E-36    -3.575241221185104E-36   -4.034864625369007E-36   -6.847936952852488E-36   -3.3156740431090383E-37  -5.756119023016447E-38   -3.8451566069577865E-39  1.5339600613369384E-39
2.9999999999999997E-5     1.7063482731576532E-33   6.839657823077713E-34    2.9776087299135586E-34   1.5007425418368449E-35   -4.2728319814293325E-35  -2.012216736221834E-36   -8.03034898338525E-38    -9.550831617931805E-37   -2.913318408369236E-38   1.2807791877814177E-38   4.308267498827719E-40
3.1E-5                    -3.4046698988447933E-34  4.6657571510505284E-34   7.398408187502878E-34    5.452668250436552E-36    -4.4292473247477685E-35  8.015167467815059E-36    1.7920797784229437E-35   6.4931131348711045E-37   1.0177473602236143E-37   1.7286296242907994E-38   -5.0312603716394174E-39
3.2E-5                    -4.175022883351639E-33   -1.2840735431847919E-33  -4.223871210649696E-34   -1.0890989272714577E-35  5.085553467653728E-35    9.823984554043142E-36    1.4236723224957344E-35   3.102267288933847E-36    7.207317487877013E-39    -2.1046076417418025E-38  -1.8039791198678432E-39
3.2999999999999996E-5     -2.0661345801580878E-33  -1.8898735530761153E-33  -2.2586615755353583E-33  -1.620492595503406E-35   1.7243207725151527E-34   -1.0517957918567232E-35  -3.192307695547238E-35   -1.9890056936444524E-37  -2.4011271276398575E-37  -5.849983306420377E-38   1.4289158413613662E-38
3.4E-5                    7.492681734643698E-33    1.3669613685478108E-33   -2.05770314841938E-34    -3.8261114527214607E-35  1.0481706945454417E-34   -2.574040195237341E-35   -6.045611521390791E-35   -8.286277125622749E-36   1.181591088471064E-37    -2.1322632440217836E-39  6.99479509576165E-39
3.5E-5                    9.892916137062617E-33    4.9807717585125306E-33   5.5265629622255785E-33   -6.413933260590808E-35   -2.5331929911573337E-34  8.35573167109229E-36     1.8256984746441691E-35   -4.3721987113278335E-36  7.947481357721029E-37    1.3821133497687111E-37   -3.6978557745232046E-38
3.6E-5                    -7.210096577680386E-33   1.491465671136474E-33    3.7503273293984766E-33   7.829509855897119E-35    -5.616522568954301E-34   5.879387294977643E-35    1.4606324758183402E-34   1.722738313495189E-35    -1.8737794144677346E-37  1.5367114521965753E-37   -2.372948383537701E-38
3.7E-5                    -2.499783814846475E-32   -8.408219442313967E-33   -1.0479798318804779E-32  3.835122589695373E-34    -1.931794554787688E-34   1.302259703558649E-35    9.70432961897145E-35     2.1071776524541866E-35   -2.4116340224324262E-36  -1.8293146253673243E-37  9.216498588392384E-38
3.7999999999999995E-5     -7.776002948334731E-33   -1.1166598947407726E-32  -1.450064826509906E-32   2.117231527670429E-34    9.108580070868331E-34    -1.3110815083095154E-34  -1.9653933722655646E-34  -2.437174863052927E-35   -7.992880121329649E-37   -5.9972452036854955E-37  7.997896609519694E-38
3.9E-5                    3.8515333410632913E-32   4.399460083879322E-33    1.3848684220385914E-32   -8.573177904367274E-34   1.5534796683357222E-33   -1.3809828209967921E-34  -3.697326585432767E-34   -6.181818517872508E-35   5.587476719119412E-36    -1.379130184721649E-37   -2.201578336384613E-37
3.9999999999999996E-5     4.889028998128583E-32    2.649392493942294E-32    3.8519290491779103E-32   -1.3937170340526466E-33  2.089043476087233E-34    1.8087534553652563E-34   9.360371684292655E-37    7.071980696021503E-36    5.380040739165934E-36    1.4208498295343816E-36   -2.792168756785243E-37
4.1E-5                    -2.033093815496784E-32   2.2551531717185672E-32   -4.901222248620994E-33   6.318365184093826E-34    -2.6080282968045398E-33  5.082182975093755E-34    6.431812106196045E-34    1.2976943207311396E-34   -9.311139683204917E-36   1.6324263873620672E-36   4.521212535581145E-37
4.2E-5                    -1.0215743396698871E-31  -2.5053249275373886E-32  -8.061379452452771E-32   3.513719908554054E-33    -3.560975245771321E-33   1.7620488746141812E-34   6.2380722276643094E-34   8.445458129671129E-35    -1.8202756897868088E-35  -2.088819758909909E-36   9.131616266362725E-37
4.2999999999999995E-5     -6.803049555010805E-32   -7.618372697119741E-32   -4.3092302269211797E-32  1.9368369309179443E-33   7.578769495510625E-35    -8.621452948698297E-34   -4.205918788183413E-34   -1.8090010642098607E-34  7.597588287884277E-36    -5.585811759049354E-36   -6.0891123209362274E-37
4.4E-5                    9.672661882526674E-32    -4.467861243469692E-32   1.2846039875540248E-31   -4.659335734258126E-33   5.758149427577072E-33    -1.41171455932888E-33    -1.3664896544271333E-33  -3.0567040433388107E-34  4.5059265687392255E-35   3.1902828674249847E-37   -2.5045468397457423E-36
4.4999999999999996E-5     2.091665457890185E-31    9.613446071317551E-32    1.7798868501319197E-31   -7.397902035540154E-33   6.73580141984522E-33     -9.855426341868266E-35   -7.143310195979306E-34   6.540613859545626E-35    2.0065727573424143E-35   1.2614598132670611E-35   -2.048748220629933E-37
4.6E-5                    6.869516258936571E-32    2.057137515180997E-31    -1.0520405748494385E-31  8.576596852957696E-34    -1.459684369311E-34      2.507179266580402E-33    1.2163090037766545E-33   5.998659375428544E-34    -7.741483084024199E-35   9.307082717307273E-36    5.333229904634298E-36
4.7E-5                    -2.5026342076798376E-31  6.718292654117591E-32    -4.186367069000058E-31   1.1595796658750822E-32   -9.189078218167595E-33   3.401132270895632E-33    2.1262432055610143E-33   4.501651572006558E-34    -1.139650284062502E-34   -1.847577438856568E-35   4.1414238087601434E-36
4.8E-5                    -3.760552890198267E-31   -3.0061129545958217E-31  -1.7300469777421965E-31  8.955698271497146E-33    -1.1203444501889698E-32  4.1609772909468167E-35   5.381865666729468E-34    -5.763205171355272E-34   4.1306163788283186E-35   -3.3298550368060377E-35  -7.862271446547298E-36
4.9E-5                    -3.778600162915677E-32   -4.829754883258148E-31   5.841815031251382E-31    -6.342406290116973E-33   -3.44460052947149E-33    -5.6677849356080314E-33  -1.9593494944882224E-33  -1.3427550038027976E-33  2.6633849506649727E-34   7.486135078882317E-36    -1.395289231909807E-35
4.9999999999999996E-5     5.1133341636479285E-31   -5.749658375642633E-32   8.494314710614207E-31    -1.4788529578288904E-32  8.592908220292138E-33    -7.436530908120673E-33   -2.524774894072724E-33   -4.871045876062673E-34   2.2140648157583295E-34   6.608518647099735E-35    4.361284871519471E-36
5.1E-5                    6.279968157046359E-31    7.446575655080389E-31    -1.5028133531356374E-31  -6.563155455475691E-33   1.7771301841758208E-32   -7.269606373817461E-34   -7.036434462951359E-34   1.6485976408046433E-33   -2.2655265079574147E-34  4.3039229785107945E-35   2.908697316865776E-35
5.2E-5                    -1.3402423655527433E-32  9.961518800964111E-31    -1.5335291725430381E-30  3.0191040283780672E-33   1.8464046808598875E-32   1.0430269738591443E-32   1.462446854563968E-33    2.6890136820631317E-33   -6.764261294774479E-34   -6.963268055490987E-35   1.5355015315773578E-35
5.3E-5                    -8.91877935229015E-31    3.810576673327541E-32    -1.3376378816282017E-30  1.2585046969000638E-33   4.309985793854981E-33    1.4642545956574708E-32   2.7529296826624848E-33   5.302303038428433E-34    -4.8281826744890615E-34  -1.246957881851918E-34   -3.7830114365493447E-35
5.4E-5                    -1.0201346128398435E-30  -1.4851083670736534E-30  9.582151233054881E-31    5.636465695606928E-33    -2.6005128158027824E-32  4.007809446105812E-33    3.418745881308457E-33    -3.68985122332515E-33    5.184973286196572E-34    -9.905645598790553E-36   -5.737745046563231E-35
5.4999999999999995E-5     2.9570717261710326E-33   -1.913048096961779E-30   3.035643818014719E-30    3.3613642826088633E-32   -5.34708055121486E-32    -1.5351769457309964E-32  1.879966061550436E-33    -5.4363473616138336E-33  1.5816922221781332E-33   1.5121304988542843E-34   1.210514881958871E-35
5.6E-5                    1.3668456025363706E-30   -2.514471010798874E-31   1.9157216301734576E-30   4.948055552693231E-32    -4.095005611199122E-32   -2.5568952328853264E-32  -4.693668333338717E-33   -9.330421705232663E-34   1.4147175122591769E-33   1.4107270641461139E-34   1.0056445803155517E-34
5.6999999999999996E-5     1.653846180569272E-30    2.415203940203304E-30    -2.2041482735150783E-30  -1.0989303065271368E-32  2.7556964665133085E-32   -1.29453579361094E-32    -1.2660725636232954E-32  7.486242903569989E-33    -7.205544645434466E-34   -2.7589651857186623E-35  7.341853230640652E-35
5.8E-5                    2.419206514905933E-31    3.501373273155939E-30    -5.176656536955718E-30   -1.319247374553519E-31   1.0564155987399119E-31   1.6545071902974677E-32   -9.538737313014282E-33   1.1072381161918833E-32   -3.6986223726285926E-33  -1.3258513193549647E-34  -7.613079817270679E-35
5.9E-5                    -1.8415253539035725E-30  1.3020654273122137E-30   -2.9718706467467232E-30  -1.7248563198317168E-31  1.0686192232227546E-31   3.84947275008689E-32     1.1195462504161806E-32   2.5102929660049394E-33   -4.293324345291736E-33   -1.1337125482829124E-34  -1.76247320141522E-34
5.9999999999999995E-5     -2.604639834726377E-30   -2.9910731568050252E-30  3.437148806273516E-30    -4.024098999488504E-33   -3.971034404840097E-33   3.0132436545869027E-32   3.258662872888037E-32    -1.3920118047475276E-32  3.5785895585343902E-34   -1.3188984168442954E-34  -8.153109354067054E-35
6.1E-5                    -9.2203041468161E-31     -5.796532287189178E-30   8.046150545479389E-30    2.896340805154159E-31    -1.4505405441165762E-31  -7.412011730301124E-33   2.4041627638259796E-32   -2.182484898656954E-32   8.280696352820404E-33    -1.3382629234338654E-34  1.3265578866650963E-34
6.2E-5                    2.101469678755562E-30    -4.092552567869765E-30   5.400684350748618E-30    4.135034593670903E-31    -1.7618647940656177E-31  -4.636122477592439E-32   -2.090772117729494E-32   -7.284797774655336E-33   1.1258626324382906E-32   2.3071616725712495E-34   2.5965502152787964E-34
6.3E-5                    3.733101733952142E-30    1.7196246948171705E-30   -3.577270689544306E-30   1.3943076663504433E-31   -4.730788771091878E-32   -5.419308628915658E-32   -6.326953332884487E-32   2.2863082599065607E-32   1.6293837129696045E-33   8.276731866400482E-34    1.8438089428853817E-34
6.4E-5                    2.043846504728214E-30    7.689277754856869E-30    -1.1443790010231013E-29  -4.041916052700947E-31   1.2646979439551944E-31   -2.087827730938563E-32   -5.13526038237534E-32    4.030379790801266E-32    -1.64658956901334E-32    6.282438143712971E-34    -7.50480570496125E-35
6.5E-5                    -1.9102025455358874E-30  9.098247678488352E-30    -1.0334581124272622E-29  -7.656733706108986E-31   1.7390185463656206E-31   3.3640472539677697E-32   1.96702175089796E-32     1.9970819893007338E-32   -2.495447687468888E-32   -9.547024371867669E-34   -4.327936618583797E-34
6.599999999999999E-5      -4.548865570237005E-30   3.863418204875509E-30    8.156245383319974E-31    -5.453446372277267E-31   5.968210832876118E-32    7.537594011876523E-32    9.155146803234113E-32    -3.031931816444581E-32   -7.653285866753327E-33   -2.349336691309082E-33   -6.3476580872080714E-34
6.7E-5                    -3.0451825242824003E-30  -5.793240166838406E-30   1.4136635565793948E-29   2.216610744739826E-31    -6.745702989430227E-32   7.637787289868736E-32    9.615287504303291E-32    -6.798946011554178E-32   2.7791928181843575E-32   -9.40398286028909E-34    -2.2638224682375425E-34
6.8E-5                    1.5114339789390894E-30   -1.4155082327621406E-29  1.8122282342334205E-29   1.0241371388689335E-30   -5.111444020610307E-32   2.4652679888065864E-32   2.16139707467228E-32     -5.03687120626062E-32    4.791295461802853E-32    3.0024380275765747E-33   8.953417823418518E-34
6.9E-5                    4.638085439732599E-30    -1.489261086080003E-29   6.986660011190447E-30    1.2205933136655693E-30   7.057558692975847E-32    -6.848550479998781E-32   -7.943741962213615E-32   2.3240686989276417E-32   2.2544052882764093E-32   4.7903600848165036E-33   1.7680105076495023E-33
7.0E-5                    2.859217719417399E-30    -5.079418309578517E-30   -1.309372272052085E-29   5.1816299793597395E-31   9.860359779098465E-32    -1.5631126577244551E-31  -1.3911886273292574E-31  1.0132314182263273E-31   -3.858569222098234E-32   2.5610644060864205E-34   8.870681156718455E-34
7.099999999999999E-5      -2.271815778485701E-30   1.1620630694838861E-29   -2.679692859363273E-29   -7.462041263929117E-31   -7.079136335542862E-32   -1.6094341827151545E-31  -1.2062071023730756E-31  1.1349212991640024E-31   -8.218678499742178E-32   -7.369196826271044E-33   -1.800015886333848E-33
7.2E-5                    -5.15644462469565E-30    2.5404862922358204E-29   -2.0965303614368756E-29  -1.7363764183863728E-30  -2.7901285747689905E-31  -2.3950273422539032E-32  -2.670453666342548E-32   2.540328176898514E-32    -5.489891583415842E-32   -8.458139284859094E-33   -3.765042784797642E-33
7.3E-5                    -1.7859971630742645E-30  2.5698379838962606E-29   3.694723734721759E-30    -1.6481962695348707E-30  -2.6460866893755907E-31  2.1438114899336163E-31   1.0755155588707595E-31   -1.2101726785672014E-31  4.0040244154181773E-32   2.060224399867736E-33    -2.043743194211533E-33
7.4E-5                    5.569015585943073E-30    8.754839544976896E-30    3.0596898504846656E-29   -3.4237914749855044E-31  1.0821238911881267E-32   3.8774586076439043E-31   2.168722433076543E-31    -2.159575404840226E-31   1.2865387593747537E-31   1.5470009310943493E-32   2.8760567438659153E-33
7.5E-5                    9.692919004444574E-30    -1.8127680130281698E-29  3.8369859250650054E-29   1.405958127226257E-30    2.7078297438896403E-31   2.9938935830173394E-31   2.242422441480518E-31    -1.5310591395302178E-31  1.1934381103268546E-31   1.518306419591256E-32    6.293496296653607E-33
7.599999999999999E-5      4.875430613501793E-30    -3.980225952070973E-29   1.762622870764103E-29    2.349257348964282E-30    2.2021056908063894E-31   -9.71929533889263E-32    9.244802661158715E-32    7.092406053344217E-32    -1.2297885226044982E-32  -4.8181976237498585E-33  3.834919442091376E-33
7.7E-5                    -7.456057788342697E-30   -4.235612607194978E-29   -1.996198092470518E-29   1.676495035768353E-30    -8.798855322896715E-32   -5.858414725188585E-31   -1.310969490992225E-31   3.151778728211271E-31    -1.7996294880849083E-31  -2.85286143573582E-32    -3.1802578683846355E-33
7.8E-5                    -1.890772376193196E-29   -2.1788662305365154E-29  -4.860843168773342E-29   -2.834856666805679E-31   -2.61934132783911E-31    -7.863308956523798E-31   -3.314265757552472E-31   3.760169755216137E-31    -2.353756231218778E-31   -2.946280207917774E-32   -8.168000858772816E-33
7.9E-5                    -1.9820835448682407E-29  1.356434021065878E-29    -4.6934970691285415E-29  -2.1590597497999334E-30  6.873057408547753E-33    -4.388903198923403E-31   -3.970322072735328E-31   1.4860692438264158E-31   -8.815215022992741E-32   2.261248949731413E-33    -5.9294711979420175E-33
7.999999999999999E-5      -6.12127227545144E-30    4.764720818932328E-29    -1.3829770443750116E-29  -2.460369372757479E-30   5.607631876529006E-31    3.4160244923117127E-31   -2.7933174281496197E-31  -2.6523839691980915E-31  1.9406132654683809E-31   4.406909327539093E-32    1.6403928050273954E-33
8.099999999999999E-5      1.71121527245216E-29     6.451949937399933E-29    3.064089537535998E-29    -7.330850915596786E-31   8.723710224165103E-31    1.0798023964665082E-30   -2.0388801274211944E-34  -6.002482432484328E-31   4.010265229158635E-31    5.601755764573918E-32    7.401072449998267E-33
8.2E-5                    3.729796902719575E-29    5.512931336533871E-29    5.940637444224317E-29    1.906989849419686E-30    5.362138633529761E-31    1.2551423128514528E-30   3.669061136168994E-31    -5.937338718426324E-31   3.2633378580671187E-31   1.725577892705224E-32    6.487019047777386E-33
8.3E-5                    4.065629968444253E-29    2.0886366295281377E-29   5.61903661157592E-29     3.377322698820197E-30    -3.547545974623648E-31   6.83992186631541E-31     7.001085598814557E-31    -1.6229546794079684E-31  -5.326369200630068E-32   -4.922956200660824E-32   1.13315124902659E-33
8.4E-5                    2.0555311571987965E-29   -2.67683010892709E-29    2.4107096381263264E-29   2.1044481632410014E-30   -1.3000255483393455E-30  -3.408198051907242E-31   8.229441545678625E-31    5.123808426206418E-31    -5.131445856159221E-31   -8.978955731954072E-32   -2.487430875465713E-33
8.499999999999999E-5      -1.6671425510705475E-29  -7.103041752994373E-29   -1.912993371599162E-29   -1.6294234672844252E-30  -1.7932748827501764E-30  -1.2595092397151711E-30  5.4665547361785244E-31   1.0400261578037407E-30   -7.0637798644617145E-31  -6.383893662176687E-32   -1.7132243923940607E-33
8.599999999999999E-5      -5.328133948378625E-29   -9.682138541222797E-29   -5.362348818303471E-29   -5.540183597644863E-30   -1.6357002835993594E-30  -1.614898374166568E-30   -1.972416135478256E-31   1.0204412236676493E-30   -4.089913561912268E-31   1.8969970178767586E-32   -5.466247577591087E-34
8.7E-5                    -6.994559395908569E-29   -9.598549509626345E-29   -6.808513512893206E-29   -6.690320337558587E-30   -9.797455580553858E-31   -1.2879459801374305E-30  -1.1918460465592484E-30  3.0864086691191326E-31   2.8678548133454436E-31   1.019221212796656E-31    -4.374589131246176E-33
8.8E-5                    -5.783466642466026E-29   -6.746885803487408E-29   -6.303484835164639E-29   -3.524566919279672E-30   -2.0338018074660175E-31  -4.735924203598194E-31   -1.90424320632187E-30    -8.131025378231878E-31   9.769672112224283E-31    1.2352071362107696E-31   -1.1498727415551453E-32
8.9E-5                    -2.3603398680025482E-29  -1.4514881987811497E-29  -4.5955117886768673E-29  2.809332640186584E-30    2.8057558499187537E-31   4.89448390733787E-31     -1.7308896712531933E-30  -1.7138172948505863E-30  1.1665375099552325E-30   6.34477096079944E-32     -1.1644765695799186E-32
8.999999999999999E-5      1.682772313766613E-29    5.601476312605749E-29    -2.254306071566551E-29   8.877428096443258E-30    2.776530979262307E-31    1.2640243629338877E-30   -4.394899492015449E-31   -1.756305398487349E-30   5.90302354176969E-31     -4.424144019050999E-32   3.918901566118873E-33
9.099999999999999E-5      4.984213043576735E-29    1.3075745609269218E-28   9.007930202897569E-30    1.1008070208466984E-29   3.817680747387572E-32    1.5984130160590388E-30   1.5177629193914841E-30   -7.181923382332601E-31   -5.5334490191356065E-31  -1.3626951461156304E-31  2.877022304796111E-32
9.2E-5                    7.078052283418877E-29    1.8814546876848945E-28   5.462645299955032E-29    7.697248863501214E-30    2.09076888987078E-31     1.4139085727507081E-30   3.1341672971170502E-30   9.839931238569817E-31    -1.6254767906420693E-30  -1.5924953347933175E-31  4.013927100958409E-32
9.3E-5                    8.125928985356391E-29    2.0305220404009935E-28   1.1232459649848206E-28   6.724581406623168E-31    1.3804522174294738E-30   8.814534612106598E-31    3.410493234948513E-30    2.445427817327437E-30    -1.8791447323889126E-30  -9.629623731778346E-32   1.750014675095976E-32
9.4E-5                    8.199356174402575E-29    1.5670203096325877E-28   1.6099787840842554E-28   -6.295677737037848E-30   3.490447870441243E-30    3.470782542222574E-31    1.9780817084066328E-30   2.7547889009655015E-30   -9.549122696961897E-31   2.695586489815719E-32    -3.284447876002678E-32
9.499999999999999E-5      6.863014061210783E-29    4.550765226714752E-29    1.6253996130175163E-28   -1.0069896039168668E-29  5.6108159391529715E-30   3.9017886857709773E-32   -6.46389420000064E-31    1.5533348425209392E-30   7.790415095662955E-31    1.5261095792571945E-31   -7.348262558440211E-32
9.6E-5                    3.308873453440876E-29    -1.159509767897224E-28   8.116579755197555E-29    -1.0246259982521461E-29  6.426739041254884E-30    -2.3500547399470523E-31  -3.324166183074169E-30   -6.676147849531107E-31   2.3361599182263266E-30   2.143892463121972E-31    -6.354125403257443E-32
9.7E-5                    -3.2131562284526276E-29  -2.975279619681021E-28   -9.075709880608606E-29   -8.971272631652564E-30   5.157121084964405E-30    -1.0240730554460284E-30  -4.8745084074756336E-30  -2.762746146648759E-30   2.684902121006387E-30    1.7164957564456039E-31   2.420194036276285E-33