% Model:              Untitled.mph
% Version:            COMSOL 6.0.0.405
% Date:               Jul 15 2025, 17:47
% Dimension:          1
% Nodes:              401
% Expressions:        11
% Description:        Point graph
% Time (s)                Displacement field, Y component Displacement field, Y component Displacement field, Y component Displacement field, Y component Displacement field, Y component Displacement field, Y component Displacement field, Y component Displacement field, Y component Displacement field, Y component Displacement field, Y component Displacement field, Y component
0                         2.5617782827300706E-37   -1.6295022982403932E-35  -4.099904518837032E-34   -1.910445922903718E-33   -6.862431920980518E-33   -1.5044403183465206E-31  2.7716871607261606E-36   1.327209842005515E-30    1.7748161108638248E-30   8.271739897829681E-31    5.932098354864775E-31
5.0E-7                    8.952445653232752E-29    1.9094832308371628E-27   3.849875258464349E-26    3.040085375335517E-26    5.4212346299434E-25      1.58820666196963E-23     -3.79662795304916E-29    -9.856796481725865E-23   -1.624602083519415E-22   -1.611447245476534E-22   -8.135732052764605E-23
1.0E-6                    -7.806937616534962E-28   -5.914421606572565E-27   1.3507567667834954E-25   1.3485521819048436E-24   3.804670376812514E-24    4.2372591518591847E-23   -3.500034568188776E-27   -6.2468992526135E-22     -3.818560119180377E-22   3.4171243827068286E-22   9.762040808911763E-23
1.5E-6                    1.3098521420438843E-28   5.31727037060187E-28     -1.4771335002407773E-24  -9.481379369143732E-24   -3.3788704947482644E-23  -4.28816614558416E-22    1.5857061462585005E-26   3.8381593397822875E-21   5.671108928969679E-21    5.6420470868225E-22      8.115231808382085E-23
2.0E-6                    1.136894954833002E-26    2.143544713521964E-25    6.3387510755208656E-24   5.04435633616332E-23     1.3460730903741644E-22   1.5816019264602515E-21   -2.0512545536529357E-26  -1.1486362845189516E-20  -3.319838234709336E-20   -7.630573694331201E-21   -2.4705757909960287E-21
2.4999999999999998E-6     -1.689742174263333E-26   -1.057423008471389E-24   -1.2361880020812399E-23  -1.1957898077674451E-22  -1.443423632250672E-22   -2.24509018667639E-21    -2.832671777143847E-26   2.3408933044071968E-20   8.258749996195303E-20    2.261643177363037E-20    1.4173510733940046E-20
3.0E-6                    -1.1612042637653005E-25  -5.75607803659228E-26    1.5584723642161799E-24   -1.6236244437432566E-22  -5.289332957657387E-22   -2.7829552201893282E-21  3.4836396722551353E-26   -4.102591912874432E-20   3.2214521918429525E-20   -1.8871632237049865E-21  -2.6467586624147866E-20
3.5E-6                    3.2215437138247143E-25   9.543428009186678E-24    5.667091279961373E-23    1.1407082754017058E-21   5.82352789600017E-22     8.331487193125248E-21    2.410334174888638E-25    2.2276134484134184E-20   -4.3854067670506905E-19  -6.986191182563187E-20   -2.1377391508150737E-20
4.0E-6                    6.997053115936762E-25    -7.690861264609764E-25   -1.4139040701176093E-22  3.2166357907479256E-22   3.626587740726089E-21    2.0870197538133577E-20   -2.250332372478058E-25   2.454415365847367E-19    4.335309565241627E-20    -5.2106526375400464E-20  1.3193400749451615E-19
4.5E-6                    -2.987137192633037E-24   -6.763441659114452E-23   -1.4260473950235116E-22  -7.014323446540787E-21   -2.3160249691876423E-22  -4.5919769187691576E-20  -1.0620917765241232E-24  -6.077490864695232E-19   1.3495029798528787E-18   2.1984801621605727E-19   1.4535836072721516E-20
4.9999999999999996E-6     -3.476220890039375E-24   -2.784327668697827E-23   1.0748895876474074E-21   -2.561870523891598E-21   -2.605955432805889E-20   -1.613714752193096E-19   1.265536619445596E-24    -3.8965638595533856E-19  1.30386858114861E-18     1.0896670337649587E-18   -3.908459617122698E-19
5.5E-6                    1.9131220418663006E-23   3.914208953575315E-22    5.610069652273645E-22    3.452914366371756E-20    -1.0724629990035545E-20  3.0175118590929684E-19   8.429676092356583E-25    2.1535676949841103E-18   -2.8298451759906426E-18  -4.0756739327423663E-19  7.287900429862416E-20
6.0E-6                    2.0033902532338786E-23   3.722474987923112E-22    -6.2441598791046594E-21  2.916545361692896E-20    1.2155969368647208E-19   7.770573617555977E-19    9.730092074345854E-25    6.271566040857667E-19    -1.1582396520942643E-17  -6.402595577013116E-18   2.6731999257867334E-18
6.5E-6                    -9.659470050379765E-23   -1.728714060770871E-21   -3.99176807849811E-21    -1.2619893255807235E-19  1.1262839679079872E-19   -1.2913784449970601E-18  1.591979490898612E-23    -2.4162411249032614E-18  -1.5129539693035468E-18  -1.2611958094855908E-18  5.13899461824269E-19
7.0E-6                    -1.3206683186301127E-22  -2.7121278268071854E-21  2.781384403887603E-20    -2.23679584059766E-19    -3.439669310514244E-19   -3.40286459068961E-18    -5.57539801655825E-23    -1.8499409436564134E-18  5.708863597404919E-17    3.052291924446853E-17    -1.1257905923701112E-17
7.499999999999999E-6      3.7921521339402737E-22   5.1908311322773504E-21   2.8151328833512814E-20   2.4452819730621526E-19   -7.04998548015368E-19    3.0983657618188964E-18   -1.4394729451110564E-22  -1.0445935558491853E-17  7.034207024642378E-17    3.748761114402273E-17    1.226283089769476E-17
8.0E-6                    7.828347569703228E-22    1.3521432798344894E-20   -9.028405305254814E-20   1.089903397872609E-18    2.169131279309312E-20    1.2273588975509867E-17   4.757748034557438E-22    5.56321942702476E-18     -1.2837512905557614E-16  -5.363419683978514E-17   9.485205379443651E-17
8.5E-6                    -1.0074163108820167E-21  -7.48871743946118E-21    -1.544072714963946E-19   3.62401135446909E-19     2.1376255249714135E-18   -6.3395677870845704E-18  9.403428781912867E-22    1.0611876996581578E-16   -2.773387575485686E-16   -9.854560044083463E-17   7.229271564136894E-17
9.0E-6                    -3.710348398305895E-21   -5.115706782561933E-20   1.7899651943960505E-19   -3.760490270992227E-18   3.926280320244317E-18    -5.118940744022847E-17   -2.667029992439355E-21   1.1487526556523025E-16   2.5455856722235084E-16   2.1740439937101656E-16   -6.400396651682818E-17
9.499999999999999E-6      4.563801035038596E-22    -2.6534560754304732E-20  6.378258080048995E-19    -6.255503235041681E-18   -1.915706119524274E-18   -2.5299424639588442E-17  -5.4120796682383324E-21  -2.32941389555022E-16    1.1756425125370408E-15   8.101053506683461E-16    4.3628895185474415E-16
9.999999999999999E-6      1.2636824508337732E-20   1.3392200050787328E-19   8.025443891177726E-20    5.133375623136999E-18    -2.1069543796343044E-17  1.0210527145033927E-16   1.1180346483331483E-20   -3.4026298860475477E-16  1.3620638042420368E-15   1.3080245934256773E-15   2.1758379697370433E-15
1.05E-5                   1.0805688152120947E-20   2.171143193582996E-19    -1.870538186375933E-18   2.4375105766512653E-17   -2.902902290823642E-17   -1.3233723208206042E-17  2.779750754699811E-20    1.2113991579850332E-15   1.0252052764184678E-15   2.168415245396706E-15    4.283653406516806E-15
1.1E-5                    -2.7147338253913335E-20  -2.612541652581617E-19   -2.4348501711540883E-18  3.9742435057508325E-18   2.0472900501511456E-17   -6.8234303205434635E-16  -3.330593252405475E-20   4.001066297284123E-15    1.2604937119765518E-15   4.9204360150333616E-15   7.575987131903857E-15
1.15E-5                   -6.472712801674585E-20   -1.0602504215593083E-18  2.7234830289218475E-18   -8.070205212551738E-17   9.00296031620203E-17     -1.0823538178256262E-15  -1.195703905983657E-19   4.109318754220325E-15    4.688570227873125E-15    1.338463055971387E-14    2.0103249203604996E-14
1.2E-5                    -5.934468538123287E-21   -2.043053168659261E-19   1.0092822994543862E-17   -1.1834309904648704E-16  -1.4952730629394198E-17  -3.6684335561586405E-16  5.930389920370131E-20    3.3248817416854237E-16   2.3381142704743752E-14   3.845074504505883E-14    5.514515482522685E-14
1.2499999999999999E-5     1.624503154194737E-19    2.9886769452474397E-18   2.289310389743231E-18    3.5946898286718625E-17   -4.548310780783654E-16   -1.5559331121924543E-15  4.348353929336596E-19    5.809901571331494E-15    6.996501693222848E-14    9.621726535393847E-14    1.2788747387995944E-13
1.3E-5                    1.885863429797521E-19    1.972521323752819E-18    -3.053730522144618E-17   1.9502936848196762E-16   -9.833289750763441E-16   -9.941155376803913E-15   7.397122514667528E-20    4.39102349578851E-14     1.2595581685421145E-13   2.006059035764132E-13    2.7420073125337986E-13
1.35E-5                   -2.7978631325658375E-19  -1.0727129034210021E-17  -5.317548492085434E-17   -1.6729785518771043E-16  -1.0632574674958852E-15  -2.3191184487768167E-14  -1.2071567079050649E-18  1.144120822791904E-13    1.798820483114312E-13    3.963637713694994E-13    5.876456290118312E-13
1.4E-5                    -1.0142115065079192E-18  -2.0967531386786517E-17  -5.933498285556683E-18   -1.0910369314406835E-15  -1.182321571424138E-15   -3.40514900041923E-14    -8.291146355878798E-19   1.8130365418860117E-13   3.6277805029989006E-13   8.388266221507795E-13    1.2445347859916344E-12
1.45E-5                   -1.063224920695672E-18   1.3133001259056895E-18   7.391252446247087E-17    -1.5996657492740095E-15  -4.2451603581550055E-15  -5.705384254378007E-14   2.939111882008553E-18    2.6351278969630796E-13   9.384702738931105E-13    1.8002988177078958E-12   2.5294591457367514E-12
1.4999999999999999E-5     -4.537844308967046E-19   3.202246822973345E-17    -4.012082358576499E-17   -1.2301137394585976E-15  -1.3589223593125361E-14  -1.3788026487451198E-13  4.330330433192856E-18    5.48252759559113E-13     2.0286866156699827E-12   3.5724062956699333E-12   4.899924317363742E-12
1.55E-5                   -1.7906210622872157E-18  -4.475788578743151E-17   -5.701152157258891E-16   -2.3158074073803256E-15  -2.840304107184326E-14   -3.164537108222038E-13   -3.451163754916709E-18   1.2880601341643075E-12   3.5831969676278867E-12   6.534206406158214E-12    9.05293538812994E-12
1.6E-5                    -8.056132127512404E-18   -2.928778112687717E-16   -1.2826172355054907E-15  -8.381123057034577E-15   -4.7796818777121867E-14  -6.120993052120152E-13   -9.10320740768259E-18    2.5509915381898197E-12   5.9947371929661266E-12   1.1466904996072776E-11   1.589404562341338E-11
1.6499999999999998E-5     -2.0353061403064436E-17  -5.327356208658663E-16   -1.5635545713168482E-15  -1.8535634121316735E-14  -8.863715475015627E-14   -1.0892902519748536E-12  9.971843901646011E-18    4.352826294137541E-12    1.0480794318306042E-11   1.944936241608259E-11    2.6281862658605676E-11
1.7E-5                    -4.5358076045756E-17     -5.479525162192375E-16   -1.822668945995766E-15   -2.8104200022546988E-14  -1.9038085083491196E-13  -1.9315671372389982E-12  4.0822772772389914E-17   7.227634011298279E-12    1.8103072110297443E-11   3.080784559892793E-11    4.034116690393211E-11
1.75E-5                   -1.0732959915110223E-16  -7.571913008031785E-16   -4.78702003844543E-15    -4.303734049580715E-14   -3.819843934922924E-13   -3.4828548805346516E-12  3.068711503009581E-17    1.2226036136452514E-11   2.8329315970649716E-11   4.4141128769526144E-11   5.64583121274537E-11
1.8E-5                    -2.429047328527502E-16   -2.4593705481306086E-15  -1.3370838734861426E-14  -9.159566991302125E-14   -6.729347933821225E-13   -6.311504709380981E-12   -4.5643459599554625E-18  1.9763963731912646E-11   3.924763989181033E-11    5.698295760969236E-11    7.108840800437448E-11
1.85E-5                   -4.864580797798616E-16   -6.731529610919793E-15   -2.6514770733532822E-14  -2.0472733613522462E-13  -1.1798161465613727E-12  -1.1097557663566825E-11  9.206876419501385E-17    2.8696470378850164E-11   4.923911992984294E-11    6.750015939682511E-11    8.057595753041785E-11
1.8999999999999998E-5     -9.104379416911894E-16   -1.3060827419635847E-14  -4.2093955715808146E-14  -3.758823869378807E-13   -2.3194034077774913E-12  -1.8022886727717464E-11  4.212892402268465E-16    3.715497061735117E-11    5.758365135337472E-11    7.482657823599855E-11    8.369817244712022E-11
1.95E-5                   -1.7683499777743193E-15  -2.0710198839707676E-14  -6.946881906988675E-14   -5.666350089140179E-13   -4.740505141937458E-12   -2.617476822614555E-11   7.543333506598429E-16    4.409353066397327E-11    6.336811029798183E-11    7.768206697417645E-11    8.155146223077892E-11
1.9999999999999998E-5     -3.664075845626459E-15   -3.3338859590895526E-14  -1.3357479505369372E-13  -8.01573672294831E-13    -8.826414998793951E-12   -3.408014669338165E-11   8.363059532811992E-16    4.932042357339827E-11    6.502874753156971E-11    7.392546932023323E-11    7.438080016015478E-11
2.05E-5                   -7.571435906996019E-15   -6.137029533608273E-14   -2.5545601343443735E-13  -1.2826347282604728E-12  -1.4227181898973497E-11  -4.100054707839806E-11   1.3128838354974835E-15   5.230725510812086E-11    6.148924591298421E-11    6.230946830860814E-11    5.995823391397285E-11
2.1E-5                    -1.4645551937234284E-14  -1.1712414091519133E-13  -4.383304847945273E-13   -2.3843005581854948E-12  -2.012113819424719E-11   -4.6852711398424686E-11  3.890957301273991E-15    5.1946794793683025E-11   5.2688071714520254E-11   4.377092803120159E-11    3.643239934241428E-11
2.1499999999999997E-5     -2.6197364427805687E-14  -2.1038387986340493E-13  -7.073835301741634E-13   -4.483960683919314E-12   -2.607987467991994E-11   -5.034132064577399E-11   9.511852150201216E-15    4.7405187010314756E-11   3.839296562088946E-11    1.983536476091984E-11    5.130548259687645E-12
2.2E-5                    -4.473958468803184E-14   -3.59650437425745E-13    -1.180148967915389E-12   -7.750638003841985E-12   -3.239599294569533E-11   -4.836405155302374E-11   1.6536956853753954E-14   3.8238687126953095E-11   1.7546128577766824E-11   -9.931293759590332E-12   -3.2139524807702546E-11
2.2499999999999998E-5     -7.683375592873479E-14   -6.154467101063376E-13   -2.0641524907024213E-12  -1.2058826629002396E-11  -3.914334099501761E-11   -3.874732200006768E-11   2.3391170726639554E-14   2.3655909726109594E-11   -1.0647377752137884E-11  -4.821590452020921E-11   -7.799801546668071E-11
2.3E-5                    -1.3658958146796624E-13  -1.06732892594104E-12    -3.5357140041723365E-12  -1.7059100640193573E-11  -4.4945390245632483E-11  -2.3061086608575824E-11  3.5671690714157184E-14   2.5908574962452324E-12   -4.638698290539917E-11   -9.834429232711358E-11   -1.3876598136835886E-10
2.35E-5                   -2.463345652318129E-13   -1.82266502499701E-12    -5.600875697641799E-12   -2.22889912419253E-11    -4.7172955916850574E-11  -4.9421355686122735E-12  6.896734447206219E-14    -2.5491045496540815E-11  -9.107981783697724E-11   -1.6299151121804605E-10  -2.1816512882359487E-10
2.4E-5                    -4.3323282067751296E-13  -2.984049951248276E-12   -8.058992791146776E-12   -2.720947718421822E-11   -4.3718829678312686E-11  1.47436778703222E-11     1.3939302126314166E-13   -6.081784992312154E-11   -1.479182679413366E-10   -2.4315905165192975E-10  -3.135254918238558E-10
2.45E-5                   -7.301788079421759E-13   -4.628490571199566E-12   -1.0550512721661815E-11  -3.116609310423765E-11   -3.4432560116042437E-11  3.972766811345776E-11    2.5068950213780056E-13   -1.0432360957012466E-10  -2.185930070779615E-10   -3.365970679059071E-10   -4.184195443694168E-10
2.4999999999999998E-5     -1.1945979308517731E-12  -6.722053718406466E-12   -1.260206092044815E-11   -3.334832753050205E-11   -2.051962734693996E-11   7.457290138823513E-11    4.0074916825736296E-13   -1.5725374255149923E-10  -2.9999321527022343E-10  -4.375826883418562E-10   -5.271783233475686E-10
2.55E-5                   -1.938647160932963E-12   -8.955864635909359E-12   -1.3672778202431138E-11  -3.2807296576546927E-11  -2.545191123580965E-12   1.198458776486365E-10    6.153601180350658E-13    -2.193793444094644E-10   -3.8615399610266724E-10  -5.399532043696927E-10   -6.365776083535166E-10
2.6E-5                    -3.123568958035376E-12   -1.0685649194413291E-11  -1.3253561696728786E-11  -2.8557057539722163E-11  2.0798606256566864E-11   1.7175137543394368E-10   9.800668069837438E-13    -2.8850792249151873E-10  -4.73408714229155E-10    -6.406374167555456E-10   -7.449674271594526E-10
2.65E-5                   -4.865112370670302E-12   -1.1183125686112785E-11  -1.0991000996880392E-11  -1.9757204751366398E-11  5.1976377988940176E-11   2.2596743552762434E-10   1.6247534188434436E-12   -3.6207808647951464E-10  -5.617564094778366E-10   -7.392251606372316E-10   -8.503730104071672E-10
2.7E-5                    -7.075672054416794E-12   -1.0058434384093115E-11  -6.784022119861904E-12   -5.9192370705112136E-12  9.272357169725692E-11    2.807915203890274E-10    2.6465064328014737E-12   -4.381619696314276E-10   -6.507917327075169E-10   -8.339826935037328E-10   -9.48112752920668E-10
2.7499999999999998E-5     -9.373670453113241E-12   -7.402540767967862E-12   -8.463110407517092E-13   1.2970100816693616E-11   1.4257250848402347E-10   3.3649669477952776E-10   4.011325171932842E-12    -5.142037598367144E-10   -7.35863636065398E-10    -9.188584349120382E-10   -1.0295565083097754E-9
2.8E-5                    -1.1175124470612567E-11  -3.474315535344528E-12   6.3615002686075875E-12   3.6473287534427133E-11   1.9878301112311123E-10   3.927011635979606E-10    5.508288538273437E-12    -5.857281692791869E-10   -8.087595443627217E-10   -9.83867467223312E-10    -1.083635686779236E-9
2.8499999999999998E-5     -1.1909429088701492E-11  1.6672509065856757E-12   1.4481296946114665E-11   6.383670208716288E-11    2.576320779937082E-10    4.471446442739745E-10    6.8112062443157056E-12   -6.473810295016185E-10   -8.606692792054506E-10   -1.017381512141106E-9    -1.0994954373732484E-9
2.9E-5                    -1.116291438741039E-11   8.154982313832091E-12    2.367168545433249E-11    9.416771604785747E-11    3.1608011693423427E-10   4.963202347069571E-10    7.630324693122357E-12    -6.946177461632283E-10   -8.83522193719508E-10    -1.0083540989098926E-9   -1.0673801495124506E-9
2.95E-5                   -8.651810649220811E-12   1.606042869712452E-11    3.446955339675679E-11    1.266467788758492E-10    3.724521015733312E-10    5.358520408358135E-10    7.84910507795064E-12     -7.229360177866639E-10   -8.695357410804418E-10   -9.47548102986524E-10    -9.777591217877804E-10
2.9999999999999997E-5     -4.156507698724412E-12   2.5282243451329095E-11   4.696819883878892E-11    1.6077356922011472E-10   4.2557893842526383E-10   5.59968352930786E-10     7.524244784949327E-12    -7.255101735541557E-10   -8.109364039105427E-10   -8.272347551528392E-10   -8.207360836357529E-10
3.05E-5                   2.4050437346638373E-12   3.557885068442808E-11    6.023899527181921E-11    1.965023709923341E-10    4.733484915020824E-10    5.618693045592137E-10    6.735358920566457E-12    -6.931956442327792E-10   -7.002530495309496E-10   -6.399945931382235E-10   -5.864980190349858E-10
3.1E-5                    1.0801457809244077E-11   4.6504382441426863E-11   7.291255892225519E-11    2.3396193090220755E-10   5.120809640098051E-10    5.35662991297752E-10     5.417148306262832E-12    -6.177185150336583E-10   -5.30402122568871E-10    -3.7858137488351495E-10  -2.665253616908126E-10
3.15E-5                   2.0426044190612497E-11   5.7338333621290505E-11   8.43753945924468E-11     2.725939990645857E-10    5.369757847683462E-10    4.775465162490734E-10    3.3218928764442425E-12   -4.939596299687855E-10   -2.947751969280361E-10   -3.747028475631787E-11   1.4438758086845E-10
3.2E-5                    3.0474830653928857E-11   6.730326161959659E-11    9.509948627159179E-11    3.101358841535278E-10    5.427386069677718E-10    3.8433238848204975E-10   1.1686955837331286E-13   -3.18396326009029E-10    1.1828487170284511E-11   3.857867430242447E-10    6.461810614536606E-10
3.25E-5                   4.0272798592429365E-11   7.595253339177974E-11    1.0566364778049553E-10   3.4244943620822757E-10   5.238225955246111E-10    2.51159744976233E-10     -4.4971437074887735E-12  -8.654814557960864E-11   3.916921610458483E-10    8.906524690493074E-10    1.233639365442373E-9
3.2999999999999996E-5     4.955434241675784E-11    8.324720723062683E-11    1.1560040677938934E-10   3.6484129524605225E-10   4.746208974587956E-10    7.172284657333503E-11    -1.0711451918956956E-11  2.061886486023861E-10    8.432747278222743E-10    1.4736767062952208E-9    1.898444776439797E-9
3.35E-5                   5.852049371451138E-11    8.914751204659217E-11    1.231895737439098E-10    3.7405844248550587E-10   3.8994687193983345E-10   -1.586324469081516E-10   -1.854155935209037E-11   5.609773298086712E-10    1.3612837779591587E-9    2.1270755476569517E-9    2.6300069448430206E-9
3.4E-5                    6.756899304383421E-11    9.307554616254191E-11    1.261081404039796E-10    3.6901240742236344E-10   2.6551737148997505E-10   -4.399348807707556E-10   -2.7759079131764774E-11  9.736661260050263E-10    1.936901635758448E-9     2.8369062177897895E-9    3.413173945005265E-9
3.45E-5                   7.680417014085797E-11    9.3733142752081E-11      1.2224719989227255E-10   3.491615268061377E-10    9.807194861483277E-11    -7.673901609928334E-10   -3.792814187130782E-11   1.4361404727502413E-9    2.5574379051615317E-9    3.5825125217085212E-9    4.2251405615102305E-9
3.5E-5                    8.570682700825562E-11    8.950577337172351E-11    1.1027076619230376E-10   3.1186322840871674E-10   -1.1475912298832536E-10  -1.1335277319008765E-9   -4.861536948893006E-11   1.9380752678385343E-9    3.205590944750641E-9     4.336975108596083E-9     5.0347589898109325E-9
3.5499999999999996E-5     9.327959921613762E-11    7.923187496249091E-11    8.966765701018812E-11    2.512835897739921E-10    -3.744433545594167E-10   -1.530042462859457E-9    -5.962831505663999E-11   2.466754976297563E-9     3.858791476494714E-9     5.067659232143186E-9     5.804254806343417E-9
3.6E-5                    9.84645940000879E-11     6.262148115601498E-11    6.020065934583785E-11    1.6003643171233678E-10   -6.810702636803455E-10   -1.947381706311603E-9    -7.100786776472394E-11   3.0057914648266792E-9    4.488780397334435E-9     5.7371910625790274E-9    6.491144344554952E-9
3.65E-5                   1.002862694489856E-10    3.96879433913138E-11     2.130821292718445E-11    3.218994933750673E-11    -1.0323020446203028E-9   -2.372664753054593E-9    -8.267252686592554E-11   3.5342013437656788E-9    5.06165887505713E-9      6.3050000894329224E-9    7.049124161854775E-9
3.7E-5                    9.757431793251376E-11    9.615760126050077E-12    -2.768852036613243E-11   -1.3462218519336806E-10  -1.4220899386270789E-9   -2.7880831695178244E-9   -9.396246115350671E-11   4.0259954148181384E-9    5.539100769061297E-9     6.728007667393218E-9     7.4283911718892274E-9
3.75E-5                   8.876592572438108E-11    -2.953608908182874E-11   -8.673865253124782E-11   -3.3895902022251827E-10  -1.8399790842211876E-9   -3.1711096518447738E-9   -1.0351579459438767E-10  4.450424168238199E-9     5.88093062776875E-9      6.959966507028E-9        7.576661263935102E-9
3.7999999999999995E-5     7.221036257626751E-11    -7.953738709445967E-11   -1.5482321182699195E-10  -5.765594126261685E-10   -2.271530361887609E-9    -3.496123846123271E-9    -1.0970213344896182E-10  4.7735353678771864E-9    6.047590410006819E-9     6.951937133189735E-9     7.442181162665795E-9
3.85E-5                   4.668938956830683E-11    -1.401792281988531E-10   -2.3083056406533166E-10  -8.415224403426804E-10   -2.6992709042520022E-9   -3.736351867949501E-9    -1.1133965531086563E-10  4.960559229308706E-9     6.0004655053278516E-9    6.656119079287173E-9     6.978463902353176E-9
3.9E-5                    1.1591768040428679E-11   -2.088380578828439E-10   -3.143174135404429E-10   -1.1271070659348066E-9   -3.1030157085616136E-9   -3.8651886249223215E-9   -1.080489480532799E-10   4.9774592767950085E-9    5.700661250613226E-9     6.03110820997514E-9      6.1479385706535635E-9
3.95E-5                   -3.3284401855469926E-11  -2.8193507752709653E-10  -4.048336258935223E-10   -1.4259117324136977E-9   -3.4592793316748465E-9   -3.856364107141953E-9    -9.980390210488813E-11   4.791251672517917E-9     5.109929136513894E-9     5.044846073174669E-9     4.922133342959503E-9
3.9999999999999996E-5     -8.784976129019302E-11   -3.56822508643956E-10    -5.003193640200403E-10   -1.7293373527012012E-9   -3.740712973958651E-9    -3.6834373825004195E-9   -8.6010914742299E-11     4.370750642594009E-9     4.195848317179975E-9     3.674888031684312E-9     3.2805215248383406E-9
4.0499999999999995E-5     -1.5156438715159284E-10  -4.3222419113106364E-10  -5.962693570996936E-10   -2.0266012843814917E-9   -3.91655792490805E-9     -3.320388302705004E-9    -6.506007906429881E-11   3.6890134640085437E-9    2.9378573058541367E-9    1.9089362394698294E-9    1.2126885601984087E-9
4.1E-5                    -2.232775133985905E-10   -5.068773533944731E-10   -6.864021316496153E-10   -2.3039596047210405E-9   -3.9542870456615956E-9   -2.7446427498604697E-9   -3.494650858410158E-11   2.726504163327177E-9     1.3290735528269809E-9    -2.5256516773267843E-10  -1.2757267697948594E-9
4.15E-5                   -3.0130862620317933E-10  -5.777662091312929E-10   -7.640067262595276E-10   -2.5446711749891313E-9   -3.822124445788882E-9    -1.941348550598982E-9    5.568617138778322E-12    1.4732360074235148E-9    -6.255817671602709E-10   -2.7928829521325656E-9   -4.158147668821486E-9
4.2E-5                    -3.836387259712977E-10   -6.395710668054983E-10   -8.228783222202892E-10   -2.7296751015309534E-9   -3.4920078383593275E-9   -9.059904461589001E-10   5.6469402002441524E-11   -7.019365346743405E-11   -2.909246709675559E-9    -5.67612578810294E-9     -7.386207197497884E-9
4.2499999999999996E-5     -4.679469945992832E-10   -6.856481576023032E-10   -8.575318659155308E-10   -2.8385638577667588E-9   -2.942125028546376E-9    3.561094435850423E-10    1.1719494323775575E-10   -1.8913570346430985E-9   -5.488324469566724E-9    -8.845367397558105E-9    -1.0890008614799783E-8
4.2999999999999995E-5     -5.513821725682539E-10   -7.094820954064873E-10   -8.628954305951841E-10   -2.8504922303313412E-9   -2.157992909260784E-9    1.8316876734333292E-9    1.8767371462753405E-10   -3.964088823159434E-9    -8.307491608871486E-9    -1.2221579674775577E-8   -1.4576474329838784E-8
4.35E-5                   -6.301057807145216E-10   -7.054178810389081E-10   -8.337278366282328E-10   -2.744917745719229E-9    -1.1321861806854123E-9   3.499703524267389E-9     2.683217665230431E-10    -6.2470336459791185E-9   -1.1289892450004502E-8   -1.570373780598876E-8    -1.8328223815683056E-8
4.4E-5                    -6.987883029288565E-10   -6.684639243476079E-10   -7.641820240811868E-10   -2.5023069105565047E-9   1.3568882239456068E-10   5.328518566336559E-9     3.587298516245686E-10    -8.68345173988945E-9     -1.4341565853081431E-8   -1.9170482856629798E-8   -2.2006592142691586E-8
4.45E-5                   -7.504787557753805E-10   -5.939017436138818E-10   -6.481424900492619E-10   -2.1051448847789014E-9   1.6374749812815226E-9    7.2721482294998164E-9    4.56249483632223E-10     -1.1201480416118832E-8   -1.7354635307422067E-8   -2.2482908294905E-8      -2.545721920756856E-8
4.4999999999999996E-5     -7.772915986418394E-10   -4.774365107962411E-10   -4.805060919525363E-10   -1.5395632969393614E-9   3.3540054414558793E-9    9.268909612226283E-9     5.559062556747719E-10    -1.3713965308704537E-8   -2.0206873819483925E-8   -2.548771249676985E-8    -2.8514152662589702E-8
4.5499999999999995E-5     -7.718064928727034E-10   -3.158458793823743E-10   -2.586036577283187E-10   -7.97396564403634E-10    5.253213303506106E-9     1.1243513080220907E-8    6.51779026076934E-10     -1.611878723731738E-8    -2.276105123346507E-8    -2.8020862472043672E-8   -3.100256010594706E-8
4.6E-5                    -7.283444897883503E-10   -1.0751440135018508E-10  1.732738670434689E-11    1.221640213563428E-10    7.28918600824867E-9      1.3110476882726076E-8    7.385777695542311E-10    -1.830143262914752E-8    -2.4868376964032198E-8   -2.991279011765711E-8    -3.2743624473061506E-8
4.65E-5                   -6.432770442936482E-10   1.474278939730342E-10    3.447102279845755E-10    1.2120477281696873E-9    9.401486413386708E-9     1.477656361235838E-8     8.120576390228696E-10    -2.013978684370483E-8    -2.637613631219131E-8    -3.099557375692987E-8    -3.356279475433223E-8
4.7E-5                    -5.144307256747284E-10   4.469219982090592E-10    7.191474632780382E-10    2.457599798493909E-9     1.1514762882981452E-8    1.614256599058386E-8     8.68109312320725E-10     -2.1509108440406627E-8   -2.7136218044675425E-8   -3.111124860406641E-8    -3.3298976651213314E-8
4.7499999999999996E-5     -3.40453357301558E-10    7.863523842260841E-10    1.1339642223809927E-9    3.83654481138015E-9      1.353971942611815E-8     1.7106245097273035E-8    9.015831126813444E-10    -2.2285802985692136E-8   -2.701214121215436E-8    -3.0120030144971744E-8   -3.1812747456777046E-8
4.8E-5                    -1.2074176926591147E-10  1.1579682286795849E-9    1.57917838331792E-9      5.318008081410163E-9     1.5375998132370806E-8    1.7566788258870593E-8    9.059939434069328E-10    -2.235123567291498E-8    -2.5884962420058833E-8   -2.7907972001072084E-8   -2.8994248402676814E-8
4.85E-5                   1.443289927434037E-10    1.5511965548792257E-9    2.0410825544703646E-9    6.861336025744542E-9     1.6916142405033146E-8    1.7429551220812632E-8    8.743039468756655E-10    -2.159783288078397E-8    -2.3659378178344903E-8   -2.439430851740142E-8    -2.4771774834913516E-8