% Model:              Untitled.mph
% Version:            COMSOL 6.0.0.405
% Date:               Jul 17 2025, 07:20
% Dimension:          1
% Nodes:              401
% Expressions:        11
% Description:        Point graph
% Time (s)                Displacement field, Y component Displacement field, Y component Displacement field, Y component Displacement field, Y component Displacement field, Y component Displacement field, Y component Displacement field, Y component Displacement field, Y component Displacement field, Y component Displacement field, Y component Displacement field, Y component
0                         1.5932858489415373E-31   3.8054913197133017E-31   1.2021674083718228E-31   1.9409762067240652E-32   5.843940612264723E-33    1.7478857090491066E-33   9.400610673425789E-35    8.286024524098756E-36    5.072458136025764E-36    -8.588573013479265E-36   -3.7193214144860587E-37
5.0E-7                    -3.1714897408381677E-23  -5.489672383568835E-23   -9.440882914842136E-25   -2.3204980612836527E-24  -8.305586644825709E-25   -1.8531052315116408E-25  -1.2483229624996756E-26  -1.2486135006078667E-27  1.2281882681807442E-27   5.166223930894088E-28    3.694424300533917E-29
1.0E-6                    4.516477131596471E-23    -7.505394655721238E-22   -1.8639746411472058E-22  -1.46608936371402E-24    -2.004402386189856E-24   6.146024354274519E-25    4.708792445054698E-26    1.732393946569715E-27    -1.77552302966332E-26    8.933451946906623E-27    1.6679086086745041E-28
1.5E-6                    4.7399269888731E-22      7.85069578530213E-21     1.034452866207121E-21    2.4641001832465235E-23   3.6274927131025686E-23   -7.00770368352769E-24    -2.5261712685802628E-25  1.2704353766495698E-26   5.967381909171663E-26    -6.269953581371128E-26   -1.4482811930740219E-27
2.0E-6                    -2.265359544051314E-21   -2.7268451909970806E-20  -2.981311451630848E-21   -1.4192502108563178E-22  -1.6851969674517844E-22  2.0541412151228337E-23   7.011195931241708E-25    -1.2529441346177927E-25  -3.289823087497811E-26   1.8763424499649703E-25   5.239758463423051E-27
2.4999999999999998E-6     5.947000668194635E-21    2.682305168908409E-20    6.087297766123758E-21    6.280882526131434E-22    1.8601952783157568E-22   5.0023143171833604E-23   -1.4765116014280064E-24  4.144829733859813E-25    -1.5057049016002192E-25  -1.7649820330717228E-25  -9.587297291499653E-27
3.0E-6                    -5.300346479178751E-21   1.148482805086757E-19    -3.9280692243616996E-21  -1.1510349750429795E-21  1.0007555614165944E-21   -3.0755931152124767E-22  1.2397225870843265E-24   -3.330430888138864E-25   -1.3986541770004935E-25  -4.732287703244807E-25   1.0802818471459987E-27
3.5E-6                    -1.4176181949205183E-20  -3.308070652095559E-19   -3.9444184578625816E-20  -2.025802364445288E-21   -2.335499246621923E-21   1.7527606880571618E-23   1.672314528017943E-23    -1.5697111321349486E-24  1.1788793649190744E-24   1.334254785512194E-24    3.865361444167097E-26
4.0E-6                    5.43563890358983E-20     -4.282501248702281E-22   1.3543847306990927E-19   9.095874582632267E-21    -5.773378319035184E-21   1.695885709476704E-21    -4.0674625395422274E-23  5.135655672763644E-24    1.4723941027971117E-24   5.439538214170059E-26    -7.748607117733626E-26
4.5E-6                    -7.584119510805748E-20   1.3360542457682687E-18   6.545355715279875E-20    6.908829692687068E-21    1.6008993548550138E-20   -1.150061295348946E-22   -8.514261377143259E-23   -2.999534246186981E-24   -9.174572505673611E-24   -3.883320256774406E-24   -3.9055823187273954E-26
4.9999999999999996E-6     -7.262089142812315E-20   -8.469039296901771E-19   -8.207537247091256E-19   -4.129966833339043E-20   3.334921930605689E-20    -7.402423713695558E-21   2.0205242089513557E-22   -1.830740984122602E-23   -3.631325954128571E-24   2.508700308106624E-24    3.7094969491849785E-25
5.5E-6                    9.9234530328145E-19      -9.324397810946824E-19   1.9076784008136498E-19   -5.757643942820568E-20   -7.793036688871138E-20   -5.117242594428158E-21   4.493866121558899E-22    4.9603660143162545E-23   5.487204938767701E-23    8.80521443214765E-24     -1.6614259508554942E-25
6.0E-6                    6.069887392279585E-20    4.631757925178687E-18    3.707589050917047E-18    1.7505219169747425E-19   -1.8126652013706477E-19  2.685915000644535E-20    6.799445565029192E-23    6.334616598482348E-25    -9.308762700933978E-24   -1.2165202643922647E-23  -1.4377671302269492E-24
6.5E-6                    -4.55442133856819E-18    -7.622950110876372E-18   -2.5201352037031467E-20  4.422050260942961E-19    2.403650565525029E-19    5.881674459081262E-20    -1.552566193565522E-21   -2.2747047262338317E-22  -2.9116656968871844E-22  -1.890508675097952E-23   1.3069987875468995E-24
7.0E-6                    3.325997124353035E-18    1.153357419560621E-17    -1.2245091896353598E-17  -5.206458623073535E-19   8.833176893254754E-19    -4.746953917140442E-20   -6.1393437939572275E-21  5.150693063399421E-22    1.387417683002944E-22    4.067882774575667E-23    5.007141984792047E-24
7.499999999999999E-6      2.8589508600059835E-17   1.293258580211249E-16    -5.536580083253724E-18   -2.3163376994413374E-18  -1.1487932553388935E-19  -3.636535815115511E-19   1.775268995438236E-21    7.1950359039775E-22      1.5027091476417445E-21   5.885983372820427E-23    -5.7444307428453985E-24
8.0E-6                    1.561100820458008E-17    6.171425386879842E-17    4.4604027122689785E-17   9.346980767326493E-19    -3.335080768603809E-18   -2.0509268536290306E-19  5.1500804416815005E-20   -4.051130227617092E-21   -5.076219356145188E-22   -1.12573783394589E-22    -1.6399903751833675E-23
8.5E-6                    -3.2178279266627566E-17  -2.723114349628996E-16   8.957485439563322E-17    1.0968951390200976E-17   -3.407560520149723E-18   1.622889861349007E-18    5.11485820558672E-20     -1.4334491620450025E-21  -7.074809015478488E-21   -3.3749576076238343E-22  2.180684924016841E-23
9.0E-6                    1.1790463275222014E-16   3.4016318646987235E-16   -3.163152983471317E-17   7.000304316832157E-18    8.657930459145688E-18    2.815219873923063E-18    -1.9691507557050822E-19  2.361405509899519E-20    -4.782997802641259E-22   2.2013505403588193E-22   6.194590443385941E-23
9.499999999999999E-6      6.144048705714834E-16    2.413042303791867E-15    -2.9071633876230084E-16  -2.878998440667987E-17   2.4748874328914922E-17   -3.927286921336726E-18   -3.519916177017249E-19   1.0186596693304475E-20   2.969218046051162E-20    1.8691222120692217E-21   -8.847495555924892E-23
9.999999999999999E-6      1.1190828489183044E-15   3.4549887370867556E-15   1.2615150050357472E-16   -3.24658702955625E-17    -5.77369423738834E-20    -1.441226518742107E-17   5.975010259496799E-19    -9.27515669457404E-20    2.1016516078518285E-20   -1.8333211712637264E-22  -3.453874721787043E-22
1.05E-5                   1.8186279516265784E-15   3.357885872482606E-15    1.867958525955477E-15    1.1117823671280397E-16   -8.486864959882646E-17   2.7899609006587257E-18   2.0629358825772498E-18   -5.056059296940254E-20   -9.724711772576904E-20   -9.325308377380858E-21   2.4039602638747752E-22
1.1E-5                    5.156354929280439E-15    8.454364097118695E-15    2.7145504648543094E-15   3.036284235434152E-16    -8.520716835578562E-17   5.850821886606548E-17    4.2866424453248153E-19   3.3381569968795005E-19   -1.483169269104441E-19   -3.4891478350176295E-21  2.0547083451552924E-21
1.15E-5                   1.511111145569663E-14    2.2668284642008862E-14   -2.1499496759404448E-17  1.703205084320702E-16    2.0962310099509402E-16   6.19627380221428E-17     -4.791594186420062E-18   3.3963865408388883E-19   2.3226552562828405E-19   3.6580554474870913E-20   6.087941133062365E-22
1.2E-5                    3.590185832376024E-14    5.1549859979419066E-14   2.0643784481848986E-16   -1.1695678928141937E-16  5.626946386281978E-16    -9.368298588123368E-17   -3.2128466443301838E-18  -7.209104738128919E-19   7.290106349958032E-19    2.5794696408739325E-20   -9.987015040203245E-21
1.2499999999999999E-5     7.7653975423775E-14      1.237334783932623E-13    1.7381041289550035E-14   1.0113373867640473E-15   1.7820653336251714E-16   -2.3915674023896877E-16  1.590005839229136E-17    -8.307275771303391E-19   -8.599094706277244E-20   -1.3317783026434884E-19  -1.385374807889396E-20
1.3E-5                    1.6783429330831732E-13   2.5385481305684485E-13   4.968338877227772E-14    4.9776876549353925E-15   -9.671112853197273E-16   1.0789786697258255E-16   3.7929391993811487E-17   2.536028447750428E-18    -2.3698518175560843E-18  -1.6990123976357485E-19  2.9081631874233607E-20
1.35E-5                   3.608815437687708E-13    3.7657896362408484E-13   7.667608938513657E-14    1.0214365985795122E-14   -7.031481090376054E-16   1.0771543367055121E-15   2.7965095405117654E-17   4.7702915910345965E-18   -1.7872105278860168E-18  3.369766260862058E-19    8.801352875230258E-20
1.4E-5                    7.597088331841274E-13    4.892747740458794E-13    1.1182346840035807E-13   1.5403941285268082E-14   3.46007848354627E-15     1.686686063278774E-15    -4.87327022335329E-18    -1.9221194710510524E-18  6.036456008065479E-18    6.540192860538752E-19    -2.332386903584773E-20
1.45E-5                   1.5693946126919807E-12   9.48153898454106E-13     2.41771149059664E-13     3.109116758124412E-14    9.701128563178241E-15    5.743027039623297E-16    5.116179811088109E-17    -6.621611174921445E-18   1.2552210115078477E-17   -8.952109622017776E-19   -3.6278080883659393E-19
1.4999999999999999E-5     3.1485675994274347E-12   2.26065174482323E-12     5.735704939303952E-13    8.444985861348586E-14    1.2186255600507883E-14   -1.2142180514546654E-15  3.426925284150844E-16    2.064891736362119E-17    -1.977275501815878E-18   -2.8960866814019937E-18  -3.3641116855070457E-19
1.55E-5                   5.995212940038332E-12    4.215606345498138E-12    1.1844394863741982E-12   2.0342362629584722E-13   1.1682596025636623E-14   1.8714169135919173E-15   8.523401266334891E-16    7.588926694704566E-17    -3.151303344655906E-17   1.7158830408800075E-19   7.863787969511149E-19
1.6E-5                    1.071070098341549E-11    5.783960272341686E-12    2.212559623855487E-12    4.065522994707193E-13    2.626152136423333E-14    1.6391029988852686E-14   1.3674182005015128E-15   9.116930868823591E-17    -1.5934232367202995E-17  6.4466956316338454E-18   1.8099011852788392E-18
1.6499999999999998E-5     1.8124910781423597E-11   7.0425056991424984E-12   3.9738786395731E-12      7.524643546958012E-13    8.409295325432965E-14    4.103463827468279E-14    2.085425613998971E-15    4.4983393881821947E-17   9.283511870072338E-17    -2.103828910156309E-18   -5.606293564479787E-19
1.7E-5                    2.9646496686989075E-11   1.1139256886678394E-11   6.938116875499927E-12    1.4420429876520735E-12   2.0375641682304466E-13   6.440171446898594E-14    4.625050203008945E-15    1.3000915865765697E-16   2.0631541726909877E-16   -3.1664681284845374E-17  -6.1001803000763935E-18
1.75E-5                   4.731413055804849E-11    2.2561603191194823E-11   1.1784778699679742E-11   2.8531421600526566E-12   3.9910552930318393E-13   8.441356367979417E-14    1.1800763029597073E-14   6.907467851659573E-16    1.42609052091297E-16     -3.6170407297798136E-17  -6.105955735325805E-18
1.8E-5                    7.244283651170328E-11    4.231507736123956E-11    1.9671110654800266E-11   5.409294057189049E-12    7.258449177830711E-13    1.4279556660874635E-13   2.5260878035834373E-14   1.875845170917293E-15    -4.9971249963710887E-17  2.6591011891120367E-17   6.287201410327581E-18
1.85E-5                   1.0274740161872376E-10   6.622452080116878E-11    3.1904195914840276E-11   9.440946963866726E-12    1.322595998027991E-12    3.3679833769668116E-13   4.5144237822928953E-14   3.4762481355408375E-15   1.4539432374079253E-16   3.9356878490603843E-17   1.5836751238896032E-17
1.8999999999999998E-5     1.3080168552166154E-10   8.959164582001973E-11    4.835951909784673E-11    1.5363945762640083E-11   2.402789868228503E-12    7.721429208164893E-13    7.85638918728804E-14     5.4984627030095376E-15   1.338669284136361E-15    -2.4399272139562915E-16  -7.238793723369737E-18
1.95E-5                   1.4760771674080866E-10   1.118888523564082E-10    6.640053644907687E-11    2.4047670818398132E-11   4.260237217803574E-12    1.4835305474361266E-12   1.5277469396169058E-13   9.409314696067738E-15    3.476223418395562E-15    -7.715980903279084E-16   -5.778320220228761E-17
1.9999999999999998E-5     1.4951330758118114E-10   1.3402488559355846E-10   8.302833712284639E-11    3.6498442943000984E-11   7.362284114806242E-12    2.4402481559981136E-12   3.130983246759912E-13    1.933127679891162E-14    5.864208477089096E-15    -9.305661396932309E-16   -7.815433549779778E-17
2.05E-5                   1.4018743393708859E-10   1.5222467503876162E-10   9.86617085698415E-11     5.2397706001519617E-11   1.2369631431339019E-11   3.75706937354309E-12     5.986776773256931E-13    4.2303372314649484E-14   8.675693477434596E-15    -4.067966703982172E-16   -5.504524956721119E-17
2.1E-5                    1.23555717135924E-10     1.5891292625698795E-10   1.1641084701917463E-10   6.897768549719299E-11    1.9759229933792043E-11   6.000503460049122E-12    1.0359545038283633E-12   8.726450895778506E-14    1.4883312413820195E-14   -6.953157974313274E-16   -1.3103860920386645E-16
2.1499999999999997E-5     9.621736045834429E-11    1.49894471734208E-10     1.3525374713395448E-10   8.246543251488997E-11    2.9120485443275015E-11   1.01170889134793E-11     1.7010539884308464E-12   1.64382447082562E-13     3.086898058444311E-14    -4.784858834259799E-15   -4.84127504091418E-16
2.2E-5                    5.0100697674771785E-11   1.2601435340193904E-10   1.455963572231174E-10    9.133418491353162E-11    3.8890064903151076E-11   1.656678730176007E-11    2.813383374132485E-12    2.8943391320889767E-13   6.569032436657777E-14    -1.3820795723803706E-14  -1.01527895059153E-15
2.2499999999999998E-5     -1.8073417477669362E-11  8.651418104680472E-11    1.3530340317155524E-10   9.709333510301573E-11    4.723468228947056E-11    2.415710227676793E-11    4.7172644801442485E-12   4.980078467066009E-13    1.3068051007653842E-13   -2.458019232532697E-14   -1.435758986629074E-15
2.3E-5                    -1.0386403247470398E-10  2.6126109318381263E-11   1.0037773672279431E-10   1.0056371483490497E-10   5.352984559259918E-11    3.006043306966575E-11    7.671981392851403E-12    8.669107298983534E-13    2.4031732281370313E-13   -3.384044952654129E-14   -2.177177007095119E-15
2.35E-5                   -2.021292044837948E-10   -5.818084794464812E-11   4.68042372936433E-11     9.817651226316946E-11    5.868008469793923E-11    3.185225695839929E-11    1.1607943966380381E-11   1.5290948326876107E-12   4.1552660746499923E-13   -4.912336496882029E-14   -5.1911434172695745E-15
2.4E-5                    -3.13366286743951E-10    -1.6251667833133222E-10  -1.821472032513253E-11   8.390520879303715E-11    6.32533339778905E-11     2.996590784308801E-11    1.61194621810231E-11     2.6646133271710532E-12   6.953846625433104E-13    -9.48158740899426E-14    -1.2883828255700227E-14
2.45E-5                   -4.4156219917859575E-10  -2.825011475127068E-10   -9.338641277011787E-11   5.456571654591705E-11    6.498617764770184E-11    2.752184124064898E-11    2.0714863677031083E-11   4.458612039134517E-12    1.1624065755140351E-12   -2.019897928891039E-13   -2.5685953983349638E-14
2.4999999999999998E-5     -5.88470547577989E-10    -4.2012212648869075E-10  -1.8143840797719218E-10  1.0688001713703055E-11   5.882875548059997E-11    2.678313117860788E-11    2.4990957254759372E-11   7.03345512556653E-12     1.96356309915541E-12     -3.8688260785744963E-13  -4.26797902313644E-14
2.55E-5                   -7.520286190004309E-10   -5.787844697348718E-10   -2.849513937555185E-10   -4.824652490354782E-11   4.059259419753038E-11    2.569310143295388E-11    2.8464156305173843E-11   1.0380146206055222E-11   3.2781558787659795E-12   -6.457063056185096E-13   -6.863809745964639E-14
2.6E-5                    -9.284999523900393E-10   -7.550712225221069E-10   -4.066312741622091E-10   -1.2593941940012775E-10  1.0817920155025824E-11   1.8780368426612033E-11   3.0291661134196796E-11   1.4323843032036459E-11   5.20036166017527E-12     -9.931190455351519E-13   -1.217847769835677E-13
2.65E-5                   -1.1130104623697753E-9   -9.417689073009277E-10   -5.496354386605965E-10   -2.2393997349185026E-10  -2.5982488684405657E-11  2.193665734431793E-12    2.9372541484914553E-11   1.8536140023203934E-11   7.593769312078853E-12    -1.5255987679629255E-12  -2.3045949079233027E-13
2.7E-5                    -1.2969605548943865E-9   -1.1358181586555622E-9   -7.132698443403868E-10   -3.3642198229380575E-10  -6.688465987022058E-11   -2.240802233799325E-11   2.4853926877193324E-11   2.2553517611225633E-11   1.0054226226963846E-11   -2.427629995502121E-12   -4.189956393827828E-13
2.7499999999999998E-5     -1.4661591959082845E-9   -1.3343003360836912E-9   -8.899469113313439E-10   -4.542891665730472E-10   -1.1482539498022648E-10  -4.969459693845146E-11   1.6432392323247084E-11   2.5745949206843655E-11   1.20611018378292E-11     -3.845946447006999E-12   -7.053591838038063E-13
2.8E-5                    -1.6032879664830125E-9   -1.5225374622543985E-9   -1.069614314199003E-9    -5.744362497883514E-10   -1.758278177887464E-10   -7.659871807532022E-11   3.99127413266542E-12     2.726584258509166E-11    1.3220972312260046E-11   -5.685949454218302E-12   -1.129175559386764E-12
2.8499999999999998E-5     -1.693039822864311E-9    -1.6752605385978499E-9   -1.2455676308067921E-9   -7.015880522816203E-10   -2.51542526784972E-10    -1.0582460878596235E-10  -1.2993325880416466E-11  2.6108345773424744E-11   1.340177326573213E-11    -7.527327257095478E-12   -1.7824468304710218E-12
2.9E-5                    -1.7245559022329025E-9   -1.7729381082456444E-9   -1.4123937158201343E-9   -8.400365414751972E-10   -3.3589554621266265E-10  -1.426648743311102E-10   -3.5388926352903E-11     2.1347722199626905E-11   1.2656279927001995E-11   -8.811732967311081E-12   -2.777595289305884E-12
2.95E-5                   -1.6887917196975812E-9   -1.8104781535829766E-9   -1.5593641316471162E-9   -9.85836218538483E-10    -4.2031853384795996E-10  -1.8827141350167423E-10  -6.3526238960166E-11     1.2395797910838216E-11   1.1025390266117203E-11   -9.19462071550856E-12    -4.131948861222352E-12
2.9999999999999997E-5     -1.5746576881285199E-9   -1.7862185258928062E-9   -1.6698503078406598E-9   -1.1272639687208667E-9   -5.012974075589011E-10   -2.369644776160079E-10   -9.644313309189833E-11   -9.500896186711642E-13   8.372337630333357E-12    -8.740266110499585E-12   -5.6564092001616626E-12
3.05E-5                   -1.3685913448400003E-9   -1.6877688418207292E-9   -1.7271996671092492E-9   -1.249282986526745E-9    -5.806860503728732E-10   -2.8100686091385153E-10  -1.322485543939341E-10   -1.8666852824728216E-11  4.307052126858413E-12    -7.751723053350492E-12   -6.979467253102118E-12
3.1E-5                    -1.0567266323012752E-9   -1.4925834004405008E-9   -1.717444879519799E-9    -1.335853933261924E-9    -6.58512188160457E-10    -3.1749820011685703E-10  -1.6940923210148116E-10  -4.060885218723379E-11   -1.8023614821911371E-12  -6.381670991906611E-12   -7.728946769035731E-12
3.15E-5                   -6.259004249668563E-10   -1.1781509137638859E-9   -1.6256130735885626E-9   -1.3717704896010508E-9   -7.278496552314649E-10   -3.4901696457652894E-10  -2.0761610097219525E-10  -6.640775481789319E-11   -1.0688977903283253E-11  -4.379691945094688E-12   -7.732290265806526E-12
3.2E-5                    -6.393630786195386E-11   -7.28519961582886E-10    -1.4335195717175952E-9   -1.3467772807360378E-9   -7.781523073396126E-10   -3.769377766222769E-10   -2.4707806402936373E-10  -9.539758073629461E-11   -2.2876921574700723E-11  -1.1768542717593154E-12  -7.069782406862702E-12
3.25E-5                   6.366679148153288E-10    -1.3620260951106005E-10  -1.1243199982369062E-9   -1.2573772851414155E-9   -8.01609486569658E-10    -3.956647015115699E-10   -2.8653996584902586E-10  -1.2684349659284913E-10  -3.832404058973726E-11   3.804856221705146E-12    -5.9535001358563E-12
3.2999999999999996E-5     1.4719312714951666E-9    5.967670582986898E-10    -6.879879737416166E-10   -1.101197448698192E-9    -7.935138699310283E-10   -3.953136518081306E-10   -3.217180259055907E-10   -1.6026981745373607E-10  -5.629395901115271E-11   1.0863010637046256E-11   -4.534197702163522E-12
3.35E-5                   2.423486249925649E-9     1.4618380764064587E-9    -1.20454216762411E-10    -8.68705108798841E-10    -7.472344644279941E-10   -3.6983879604714737E-10  -3.4584409516468185E-10  -1.952790084930124E-10   -7.562513614466449E-11   1.9885959242451557E-11   -2.728722109203966E-12
3.4E-5                    3.4643469516325954E-9    2.451135014183691E-9     5.81211181608331E-10     -5.422733495670325E-10   -6.525477470315611E-10   -3.2062408008077507E-10  -3.523852047224676E-10   -2.3064053849288403E-10  -9.522900121462487E-11   3.0395880716501216E-11   -1.0553634906927368E-13
3.45E-5                   4.567900969449197E-9     3.5578764071720015E-9    1.419722192544979E-9     -1.0453343627954104E-10  -5.007156486014955E-10   -2.5135510724275853E-10  -3.3799170291734635E-10  -2.6336602695483103E-10  -1.1442245895655541E-10  4.1737112418267285E-11   4.094314455354251E-12
3.5E-5                    5.710092092901248E-9     4.764638646337822E-9     2.3926090957725535E-9    4.5216335321109684E-10   -2.894820924836441E-10   -1.6093578068555063E-10  -3.031766869218093E-10   -2.8885875171247205E-10  -1.3282700772485147E-10  5.334101340455817E-11    1.0672743762528068E-11
3.5499999999999996E-5     6.862515321458649E-9     6.032948837958381E-9     3.486949199220575E-9     1.1230770972752407E-9    -2.1519123957668288E-11  -4.3130252703443796E-11  -2.499483732878992E-10   -3.023525036360153E-10   -1.4992543804723194E-10  6.490557866492022E-11    1.9950722107441866E-11
3.6E-5                    7.984075922846649E-9     7.308540193612321E-9     4.678521169713931E-9     1.8952293428427106E-9    3.0074377563549335E-10   1.0724442512460272E-10   -1.783135281607331E-10   -3.004987188002663E-10   -1.6462357605737908E-10  7.633844448285434E-11    3.134601525594762E-11
3.65E-5                   9.018728313772075E-9     8.535000567484422E-9     5.933551103796958E-9     2.7528238574834075E-9    6.770474837648879E-10    2.893259274850511E-10    -8.476261724263379E-11   -2.8164765718809554E-10  -1.7512257056962134E-10  8.750783912774537E-11    4.349700821197407E-11
3.7E-5                    9.899099428283606E-9     9.657303206428787E-9     7.2087448331635525E-9    3.6789497570077947E-9    1.106867413916558E-9     4.975534621548857E-10    3.577223976307743E-11    -2.446393649272495E-10   -1.7915771015612446E-10  9.80107802237983E-11     5.499488905219748E-11
3.75E-5                   1.0551654775319521E-8    1.061274775515794E-8     8.449785930879755E-9     4.652838219012647E-9     1.5864464228884498E-9    7.265654072602764E-10    1.8607291298102456E-10   -1.8753026306196627E-10  -1.7443587628691899E-10  1.0708117415219636E-10   6.519953853218436E-11
3.7999999999999995E-5     1.0901404841402412E-8    1.1325206572689822E-8    9.592556773533249E-9     5.645922792277144E-9     2.1070065930596506E-9    9.736896275487052E-10    3.6414274082087863E-10   -1.0783567385022561E-10  -1.590439681319416E-10   1.1357813261774947E-10   7.444506316858524E-11
3.85E-5                   1.0876615101927242E-8    1.1712991678662373E-8    1.0568276942475205E-8    6.6201429850787255E-9    2.6530624130112076E-9    1.2368322324009324E-9    5.63948689981721E-10     -4.233704926410814E-12   -1.316603417037398E-10   1.1601851221403094E-10   8.343960082020448E-11
3.9E-5                    1.0413144888809467E-8    1.1701416031870096E-8    1.1307772197980038E-8    7.528491679592881E-9     3.2017300823442164E-9    1.510353599402503E-9     7.782937721112568E-10    1.2207629994138832E-10   -9.148234312205136E-11   1.1277559035690506E-10   9.236129215385544E-11
3.95E-5                   9.456992574604221E-9     1.1225760691604177E-8    1.1740663136769086E-8    8.315753772839744E-9     3.725590987555686E-9     1.7825045397141394E-9    1.0010506661445466E-9    2.680361347893216E-10    -3.7894014441002944E-11  1.0250261374787342E-10   1.003591031556558E-10
3.9999999999999996E-5     7.96473708553322E-9      1.022431899574809E-8     1.1792462247344282E-8    8.919597520048769E-9     4.1978734420105346E-9    2.035944315687798E-9     1.2270900760484003E-9    4.3096317339534965E-10   2.990762119632673E-11    8.452635399563937E-11    1.0574326263239258E-10
4.0499999999999995E-5     5.903470827668215E-9     8.63457923487892E-9      1.1386061527917633E-8    9.27415761669101E-9      4.594516908244159E-9     2.2506689082091423E-9    1.4505927739371719E-9    6.099267128788865E-10    1.1294322562043091E-10   5.881218914930989E-11    1.0659811827761952E-10
4.1E-5                    3.2529266408704196E-9    6.402106489776639E-9     1.0448648451815434E-8    9.315611338415766E-9     4.890411770974771E-9     2.407579264477091E-9     1.663466002043616E-9     8.042788660446484E-10    2.1186789080437984E-10   2.5408377223559315E-11   1.0136762250598203E-10
4.15E-5                   1.188484955348328E-11    3.4972057920366202E-9    8.918607850503761E-9     8.986004868345775E-9     5.0541082341080835E-9    2.490740481408291E-9     1.8546839138738689E-9    1.0101248747745301E-9    3.259465680414796E-10    -1.6226218296735638E-11  8.91344675459295E-11
4.2E-5                    -3.792495713790932E-9    -7.35539024781206E-11    6.748455003865742E-9     8.233665801423208E-9     5.047340636991558E-9     2.48706946818791E-9      2.0102882722582486E-9    1.2179220179771591E-9    4.521973933993853E-10    -6.7402653716811E-11     6.953393388340884E-11
4.2499999999999996E-5     -8.098086653895845E-9    -4.267583261959113E-9    3.906423261830518E-9     7.013317787352574E-9     4.830304408400973E-9     2.383822682495742E-9     2.1139270965611913E-9    1.4137606128866843E-9    5.85325103677524E-10     -1.2958356316415125E-10  4.239565708969477E-11
4.2999999999999995E-5     -1.2808814855001682E-8   -9.012747377061645E-9    3.815146069458093E-10    5.2893002208792075E-9    4.3680538242896115E-9    2.1661685637266815E-9    2.1482865762405823E-9    1.583519034028351E-9     7.185969537224609E-10    -2.0326794139884789E-10  7.355392805328756E-12
4.35E-5                   -1.7800710661663322E-8   -1.4209886040363555E-8   -3.80780078190413E-9     3.0408723152868416E-9    3.634215684658071E-9     1.817697475118207E-9     2.09710239062529E-9      1.7163007670787898E-9    8.452001512422436E-10    -2.8712726248412674E-10  -3.625299133348319E-11
4.4E-5                    -2.2924955151486622E-8   -1.9728107685240854E-8   -8.605877147424711E-9    2.66121329281557E-10     2.612789782088806E-9     1.3246482275393182E-9    1.9463040904510666E-9    1.804284177972942E-9     9.592884742505907E-10    -3.779895424984613E-10   -8.910500611254998E-11
4.45E-5                   -2.800504532779591E-8    -2.539943202613546E-8    -1.3917143445230619E-8   -3.0163598284818597E-9   1.3002052560789633E-9    6.810644230812972E-10    1.6833698885540753E-9    1.83964946781385E-9      1.0561053012227212E-9    -4.71571350551221E-10    -1.5141898559477226E-10
4.4999999999999996E-5     -3.2835204855552525E-8   -3.1020754849444163E-8   -1.960786599614206E-8    -6.7654334446095375E-9   -2.9299418545254955E-10  -1.0925386195015224E-10  1.2962125139184375E-9    1.8119184308409487E-9    1.131166862795461E-9     -5.632688733383345E-10   -2.2266929086119194E-10
4.5499999999999995E-5     -3.718825884602093E-8    -3.636302356917938E-8    -2.5509382602957607E-8   -1.091311789648955E-8    -2.142955134779603E-9    -1.0349183104424751E-9   7.741040874548349E-10    1.7082012822484753E-9    1.1790983818949459E-9    -6.484452294622776E-10   -3.0159330769779583E-10
4.6E-5                    -4.083134140934479E-8    -4.118045807783354E-8    -3.142124951538145E-8    -1.536001405703056E-8    -4.2151807129870695E-9   -2.079459394822239E-9    1.1133754501876847E-10   1.515669265176373E-9     1.1928809692183113E-9    -7.223108013855173E-10   -3.8630323472897447E-10
4.65E-5                   -4.353989954401899E-8    -4.521527434089743E-8    -3.711536633304785E-8    -1.9974563445865145E-8   -6.465593244226467E-9    -3.2202086697980323E-9   -6.886534687593346E-10   1.2235474810515988E-9    1.1639026469738047E-9    -7.799196999228377E-10   -4.742708984361748E-10
4.7E-5                    -4.510389497676628E-8    -4.820149383899779E-8    -4.2342128716800034E-8   -2.459776929083991E-8    -8.838182193805825E-9    -4.424865867513334E-9    -1.611717339814933E-9    8.229901990222672E-10    1.0827001205609874E-9    -8.165716422433177E-10   -5.621208688796482E-10
4.7499999999999996E-5     -4.5329210409054414E-8   -4.9874437619626787E-8   -4.683738294556852E-8    -2.9050415379871707E-8   -1.126155641395993E-8    -5.6510850995924285E-9   -2.6346639466714183E-9   3.0594981490957765E-10   9.400558880882448E-10    -8.283396810927088E-10   -6.453364533778111E-10
4.8E-5                    -4.4041362202874105E-8   -4.998732447125089E-8    -5.032836447483114E-8    -3.313824168982625E-8    -1.364797042436012E-8    -6.851164428913224E-9    -3.728120510684197E-9    -3.3436291621539874E-10  7.281945839433132E-10    -8.121396444172328E-10   -7.181174066524209E-10
4.85E-5                   -4.109538217579358E-8    -4.8329828789096345E-8   -5.2539626532209395E-8   -3.6654042839214726E-8   -1.5895786200133947E-8   -7.977002681856338E-9    -4.857805738520819E-9    -1.100017849540215E-9    4.419172391776327E-10    -7.65026502688585E-10    -7.737073591988414E-10