% Model:              Untitled.mph
% Version:            COMSOL 6.0.0.405
% Date:               Jul 17 2025, 07:20
% Dimension:          1
% Nodes:              401
% Expressions:        11
% Description:        Point graph
% Time (s)                Displacement field, Y component Displacement field, Y component Displacement field, Y component Displacement field, Y component Displacement field, Y component Displacement field, Y component Displacement field, Y component Displacement field, Y component Displacement field, Y component Displacement field, Y component Displacement field, Y component
0                         3.575593633720171E-35    1.5836852102762106E-33   6.98647508006629E-33     3.642792264788894E-32    4.496942337325075E-32    3.0660742569641866E-31   1.1671439585664148E-31   7.760140974394568E-33    3.412760710919965E-31    -4.923405367992851E-31   -8.760636407747208E-32
5.0E-7                    4.057484936530386E-27    1.1414537874274834E-24   3.2699235816880075E-24   -6.667377736230823E-24   2.311647003706348E-23    -5.159767740360785E-23   -1.7457145541220002E-22  -6.777472511089666E-24   7.166389267433E-22       -2.0083704838912187E-22  -4.700102215979103E-23
1.0E-6                    -7.857135387534859E-26   -7.560122664650719E-24   -2.7878170060657745E-23  -2.5198153494072808E-23  -6.574619500632634E-23   -7.219346050945793E-23   -2.2376422671927965E-23  8.871986755062231E-23    -4.636801441725033E-21   2.0639384238844984E-21   4.747128391287739E-22
1.5E-6                    1.9331751372317902E-25   1.732877377030537E-23    6.577956170222165E-23    1.5708006447823217E-22   -5.033573814876118E-22   8.035969388476402E-22    7.106654673202866E-21    1.0686179498650094E-22   8.57292569905135E-21     -5.0974133312830094E-21  -1.0189894472122657E-21
2.0E-6                    -4.740707228024425E-25   4.647214077893832E-24    -1.4722370110532754E-23  -2.4848359494014684E-22  6.866319344477675E-22    2.838177926442604E-22    -3.378890802355179E-21   1.3511224675879506E-21   -9.37484862031384E-21    1.0609599887962383E-20   -5.434767784100299E-22
2.4999999999999998E-6     8.47844787380872E-25     -1.196613118916769E-22   -2.148673755668513E-22   8.198088657490876E-22    4.7782454140646085E-21   -5.0973718824329726E-21  -8.556824487228238E-20   -1.5378958467286738E-21  -4.5791405382745264E-20  -2.0198681883560322E-20  -9.100110995782462E-22
3.0E-6                    5.617219805754302E-24    -1.1184205341627579E-24  -3.417363387694909E-22   -2.381853379553585E-21   -3.751684731757288E-21   -1.2737743062810596E-20  -1.4953195549581463E-20  -3.111231574382325E-20   1.217205936724147E-19    -1.0302314963674921E-19  1.1770708286666633E-20
3.5E-6                    -8.931982680531281E-24   8.87398140145083E-22     2.692189260440014E-21    -2.5546822976357335E-21  -1.7017414354095708E-20  6.292300877477707E-20    5.974630814131902E-19    -1.4750729122073198E-20  5.34536407886526E-19     2.1625425136209477E-19   3.3993020075363757E-20
4.0E-6                    -5.0213347160187916E-23  4.853445866745457E-22    5.674240872416543E-21    1.4023298024759795E-20   -3.483470825748949E-20   1.1013072683521837E-20   7.341007170320318E-19    2.405978946612557E-19    -1.12255359151141E-19    9.116203102228377E-19    -8.691862214540254E-20
4.5E-6                    4.276475595023833E-24    -3.90626660110483E-21    -1.9893696555352683E-20  5.47247490690514E-21     -3.2649377676869844E-21  -2.8346695825535724E-19  -2.4436045722796543E-18  3.873201577406614E-19    -3.6555506315239256E-18  -5.128034550656236E-19   -3.1646927122020375E-19
4.9999999999999996E-6     2.5183677767861356E-22   -6.98747346323363E-21    -5.133140457297065E-20   -2.0048505318963387E-20  3.719016764853555E-19    3.08636131635779E-19     -6.741058772955314E-18   -7.804586192710827E-19   -4.5434410668828316E-18  -6.227003485571264E-18   1.8712797354189305E-19
5.5E-6                    4.741812967452244E-22    6.4751003959690135E-21   7.108049749884396E-20    -1.0763591652874145E-21  3.7669802318795107E-19   1.3011493906148379E-18   3.0993971225717485E-18   -2.610276985433596E-18   1.1237605896842827E-17   -3.978012354842391E-18   2.013353843379884E-18
6.0E-6                    -2.0866497548952194E-22  6.069157449740939E-20    3.318857251525208E-19    4.930600121805545E-21    -2.0235194426083952E-18  -1.526071052357809E-18   3.2380837665599E-17      2.1033251099242326E-19   3.433433871283684E-17    2.51739104444769E-17     1.539531592041665E-18
6.5E-6                    -4.5196271606739225E-21  9.596603960240596E-20    4.535648464248599E-21    -1.6701704107424067E-19  -3.2488058053202988E-18  -6.9234130508381305E-18  2.797907081187273E-17    9.489463736546003E-18    6.078593671680832E-18    4.064399752329467E-17    -7.744376595233806E-18
7.0E-6                    -8.594472163848536E-21   -1.5194293765109428E-19  -1.4076025991707272E-18  -1.6153295150177818E-19  7.327934729353189E-18    3.75500822343081E-18     -7.771310656935646E-17   9.26861158103803E-18     -9.499522322492269E-17   -5.111601668380116E-17   -1.6930048476574776E-17
7.499999999999999E-6      1.796759301178984E-20    -5.467596284774877E-19   -1.3140708377068295E-18  2.323083935230626E-18    1.849170681688804E-17    4.3384696445443766E-17   -1.8332395727021714E-16  -1.6536242882612307E-17  -1.268040973429311E-16   -1.7739739471978656E-16  7.83823338338332E-18
8.0E-6                    8.047998062365739E-20    4.3047720482199337E-19   4.160088245483763E-18    5.508355374961986E-18    -1.46840399107739E-17    4.732892223276235E-17    6.26204736009669E-18     -3.3779190675539016E-17  6.389922350484446E-17    -3.468013590217806E-17   7.15531514112464E-17
8.5E-6                    1.3695839418003942E-20   3.781118026375947E-18    8.862621384773478E-18    -7.7938168051047E-18     -7.012575884554702E-17   -8.255145725176986E-17   5.258343337086427E-16    2.014628400088566E-17    3.132734251206422E-16    3.807434415856715E-16    7.381422079624414E-17
9.0E-6                    -3.361634157603174E-19   5.622279097613769E-18    -3.578760965828625E-18   -3.514715403129545E-17   1.322442133337883E-17    -1.8193742519856009E-16  6.855413678562533E-16    1.074798646270497E-16    3.154700360753273E-16    4.1070418211818667E-16   -1.1913380963825492E-16
9.499999999999999E-6      -3.1383851175279884E-19  9.467579496683353E-19    -2.4887353053855752E-17  1.262398203171695E-17    2.65230787148579E-16     1.773052349270224E-16    -3.12202917442205E-16    7.210938550712025E-17    1.4419471646916404E-16   -3.365750236468296E-16   -4.0220368290195474E-16
9.999999999999999E-6      1.448531871521306E-18    4.0483234430300513E-19   -3.0444062205079753E-18  1.8735199979036338E-16   3.1484117626938447E-16   8.933135470314506E-16    -1.800547158555424E-15   -1.4140819713145263E-16  8.562888061713941E-17    -9.966475745890713E-16   -2.9326410740181527E-16
1.05E-5                   4.159504505706194E-18    3.677870599631089E-17    7.201411125729977E-17    1.8565994132442388E-16   -5.13170859982032E-17    1.1920823600624873E-15   -1.4510674880358016E-15  -3.07216046275262E-16    1.0213682194814515E-16   -7.196432085380454E-16   5.809890334373502E-16
1.1E-5                    3.366810330681899E-18    1.325997354008743E-16    7.471536365629976E-17    -4.0104344987656346E-16  -1.7964857250399593E-16  1.4117389758221865E-15   2.0350644717142207E-15   2.835008125177546E-17    -1.4545240640828882E-16  -5.107234521025811E-16   1.5443609840213545E-15
1.15E-5                   5.481467385897797E-19    2.652743497831629E-16    -6.916672752098352E-17   -8.870259843215582E-16   6.825736425455672E-16    3.2476342996779443E-15   6.35142476041053E-15     1.2556292544853377E-15   -1.051020889089498E-15   -1.2842284094565092E-15  7.9755255332737245E-16
1.2E-5                    1.9481714617314997E-17   4.423125463616243E-16    -5.142804195764536E-18   6.998321645281501E-16    2.610826035589615E-15    5.7334489102387775E-15   7.400469849240094E-15    2.9727291973433052E-15   -7.863043090935804E-16   -3.946071291749477E-16   -2.6229191747135766E-15
1.2499999999999999E-5     9.791090568976674E-17    8.908233481593551E-16    8.084181377927224E-16    4.5510979786811694E-15   6.662578345948986E-15    5.719870740640401E-15    4.247141700556345E-15    3.80272050582014E-15     9.648692056557492E-15    4.1414697238893255E-15   -6.3684101951357595E-15
1.3E-5                    2.4567542691136877E-16   2.0465379936686326E-15   1.9459082049728253E-15   5.964226591883746E-15    1.4798119635029345E-14   1.1564928008683088E-14   2.723160310835052E-15    4.05232079603462E-15     4.031722886376386E-14    2.7019124101585004E-15   -5.7344138476673006E-15
1.35E-5                   4.688112579340821E-16    4.130274803069032E-15    1.844741059509308E-15    -4.097757348801888E-16   2.4504322631363867E-14   5.2204455714884073E-14   1.5921270584010384E-14   8.880661865429035E-15    7.503433000345385E-14    -2.2565687602909504E-14  5.767337766368661E-16
1.4E-5                    9.90583643228603E-16     7.14463177195559E-15     8.961243436777083E-16    -9.487138874938921E-15   3.0262275073183575E-14   1.4937640798353215E-13   5.699882356481296E-14    2.4540730288585438E-14   6.354290822231655E-14    -6.747986392456167E-14   5.206150143462594E-15
1.45E-5                   2.5148155156158185E-15   1.2395971967097317E-14   5.11534058815161E-15     -1.0904178164801445E-15  4.1022515555506686E-14   2.6439337448944607E-13   1.2132460472904968E-13   5.162679461911622E-14    -7.694828438064143E-15   -8.711729707740606E-14   -4.760558884371645E-15
1.4999999999999999E-5     6.1141197115787395E-15   2.361020762850735E-14    2.2522487998788236E-14   4.689787784834321E-14    8.981888050719829E-14    3.071535135837473E-13    1.8892168922378377E-13   9.499952761811508E-14    -1.7566181517657188E-14  -5.0584990970475475E-14  -3.657554748391653E-14
1.55E-5                   1.304478488178394E-14    4.292953076358163E-14    5.088540372330286E-14    1.3065610567294615E-13   2.1864710479218982E-13   3.04742230776382E-13     2.9299882952118863E-13   1.8967238853223099E-13   2.5005084603176137E-13   -4.12756279615301E-14    -8.620005027456586E-14
1.6E-5                    2.598291507985588E-14    6.393234628659457E-14    7.422063346997125E-14    1.9712397571192598E-13   4.796348622486194E-13    6.397204712477815E-13    5.950928033055039E-13    4.0328300819714903E-13   8.901213161520853E-13    -2.500720519155396E-13   -1.5341848156404868E-13
1.6499999999999998E-5     5.1732634395592315E-14   7.793056620100214E-14    9.126700852675653E-14    1.7516498671466946E-13   9.554517549964225E-13    1.925165941887062E-12    1.2900461132473944E-12   8.003759051041805E-13    1.7178434646143898E-12   -7.80048053366549E-13    -2.674901225914502E-13
1.7E-5                    1.0139361916591458E-13   1.0630385490551283E-13   1.6090236679472672E-13   1.173460600137457E-13    1.671704586697056E-12    4.150860154795025E-12    2.3347306410320956E-12   1.4222150356677125E-12   2.4077438283083373E-12   -1.4693207344399347E-12  -4.82133563602296E-13
1.75E-5                   1.8595792823247775E-13   2.329124314107716E-13    3.8934108657326373E-13   3.581898154974266E-13    2.3982269346709274E-12   5.8231685871344885E-12   3.366901357652428E-12    2.307015788375782E-12    2.832489942174806E-12    -2.05354100423103E-12    -8.251598421211604E-13
1.8E-5                    3.1683552238534033E-13   5.717683841390489E-13    8.083964842240319E-13    1.3561890897402181E-12   2.741549660381413E-12    4.905117514585216E-12    4.117329987557102E-12    3.4807328349097383E-12   3.3013589812287688E-12   -2.6167237574258378E-12  -1.2852875014933825E-12
1.85E-5                   5.201119199042399E-13    1.1406938735949742E-12   1.2652213501771274E-12   3.0550017364665606E-12   2.8195133348706516E-12   1.9044186865493083E-12   4.9451656061143445E-12   4.937357681326533E-12    4.5946699977063144E-12   -3.801892041810172E-12   -1.9472928107704177E-12
1.8999999999999998E-5     8.415393664455049E-13    1.7408068302640669E-12   1.5589828364928189E-12   4.397103755772353E-12    3.798204159527677E-12    1.6682871127701576E-12   6.791619584812935E-12    6.826073668634089E-12    7.83601913486227E-12     -6.405595033994456E-12   -3.1936185593772598E-12
1.95E-5                   1.3037698855147794E-12   2.041299958725268E-12    1.795280970011938E-12    4.063049026751624E-12    7.0901993179829835E-12   9.765109551288361E-12    1.054789954630469E-11    9.840410778333385E-12    1.4022415426645197E-11   -1.0745602200244409E-11  -5.645878372069455E-12
1.9999999999999998E-5     1.8533842965023427E-12   1.9435147362496296E-12   2.479541285010892E-12    2.3251200270730084E-12   1.256268256624672E-11    2.5483888936277012E-11   1.6573395433119956E-11   1.5187225342744535E-11   2.305636003358675E-11    -1.6562604760229166E-11  -9.677646863323792E-12
2.05E-5                   2.4365685771088093E-12   1.945294490709261E-12    4.036091070749052E-12    1.958853891877096E-12    1.807770495909885E-11    3.9833370189538375E-11   2.4651561352095473E-11   2.3598197385977858E-11   3.292621975342929E-11    -2.351026362027335E-11   -1.4940326567663426E-11
2.1E-5                    3.2499813477750084E-12   3.024873300960658E-12    6.344088768714738E-12    6.322626165656137E-12    2.1696158660209196E-11   4.30197562460926E-11     3.3874061405218457E-11   3.413957065975367E-11    4.0282083260665306E-11   -3.134669703953834E-11   -2.062493879327233E-11
2.1499999999999997E-5     4.906820045146729E-12    5.945751605239443E-12    9.145793512814657E-12    1.5866138430996997E-11   2.4250930700670622E-11   3.423565721156059E-11    4.237947695152373E-11    4.440783971125261E-11    4.259017778849363E-11    -3.924418492301717E-11   -2.6418904245277568E-11
2.2E-5                    8.157326835207564E-12    1.0625206978446435E-11   1.2880276813584354E-11   2.6916862277707373E-11   2.869874040269214E-11    2.25666869150408E-11     4.77499357061849E-11     5.2238745347804734E-11   4.000409365485299E-11    -4.5080470426935315E-11  -3.300400028659468E-11
2.2499999999999998E-5     1.326720983708582E-11    1.635248062485638E-11    1.8430300042227512E-11   3.470672806911713E-11    3.6364556616925516E-11   1.7853435162501606E-11   4.816956631224688E-11    5.677019405380138E-11    3.477912671261007E-11    -4.613297703614889E-11   -4.11157821311619E-11
2.3E-5                    1.973296920402194E-11    2.2667567312846098E-11   2.568697365556026E-11    3.776275460747989E-11    4.440388234075053E-11    2.140904369810097E-11    4.2982497327920286E-11   5.713821753925302E-11    2.8507284320266232E-11   -4.10197201199676E-11    -4.988917102171465E-11
2.35E-5                   2.677727762207451E-11    2.963291950929302E-11    3.2987776944611485E-11   3.881332203207734E-11    4.7605646492179526E-11   2.509005880907144E-11    3.1867813978702096E-11   5.040897910018563E-11    1.9960325715989888E-11   -3.0807205313001683E-11  -5.639728519516402E-11
2.4E-5                    3.403071903679562E-11    3.6689099032215746E-11   3.8460098449546956E-11   4.099749932699991E-11    4.238296134274886E-11    1.789007178190776E-11    1.4034552762479524E-11   3.206025962898484E-11    5.752744444987522E-12    -1.772576972006849E-11   -5.715145130314037E-11
2.45E-5                   4.131136275023821E-11    4.122613609145977E-11    4.106027259753925E-11    4.337494403535776E-11    2.8479381506742595E-11   -5.8818691671817584E-12  -1.1059257680473831E-11  -5.002857667602946E-13   -1.6926133746396474E-11  -2.6382177269821973E-12  -5.0095595270880794E-11
2.4999999999999998E-5     4.743445409957299E-11    3.9107382438482965E-11   3.9252437478810794E-11   4.060515887798099E-11    7.331976820719862E-12    -4.2093046843361093E-11  -4.246311068385675E-11   -4.484355610951131E-11   -4.808837839611605E-11   1.6048943841185875E-11   -3.5164756767028255E-11
2.55E-5                   4.948095212323486E-11    2.7706044710747075E-11   2.9570620360830184E-11   2.7305794971202592E-11   -1.993473031751412E-11   -7.94908540492093E-11    -7.795994175246676E-11   -9.420914561600566E-11   -8.486794914083026E-11   4.092438486839947E-11    -1.3303846396390897E-11
2.6E-5                    4.390596569260505E-11    8.858187082687757E-12    8.762909183854791E-12    2.762858512107165E-12    -5.250682087465711E-11   -1.091666685671618E-10   -1.1552137163456815E-10  -1.4147969447498704E-10  -1.2325491212517453E-10  7.316469479299098E-11    1.4596461267899934E-11
2.65E-5                   2.8931176391740102E-11   -1.1793382662971848E-11  -2.1801984027901422E-11  -2.8666273518014592E-11  -8.89121020474752E-11    -1.3292596666894555E-10  -1.5413584087469867E-10  -1.8314511034096679E-10  -1.6031829334548065E-10  1.1153194885746916E-10   4.79906379478256E-11
2.7E-5                    5.910359267931456E-12    -2.942419095867999E-11   -5.5204469198681987E-11  -6.172551819565754E-11   -1.2714857661369142E-10  -1.6098135417781143E-10  -1.9365943784265286E-10  -2.2055324249781947E-10  -1.9559575211129028E-10  1.534951467058055E-10    8.67619728246543E-11
2.7499999999999998E-5     -2.2005520086629736E-11  -4.454677625686992E-11   -8.373264385533418E-11   -9.469131509063525E-11   -1.6583484278997085E-10  -2.003932123029895E-10   -2.3465157232635327E-10  -2.5778597852086714E-10  -2.307666240157201E-10   1.971960991506447E-10    1.3165353584026577E-10
2.8E-5                    -5.285090020744344E-11   -6.27096694526306E-11    -1.0456732461109675E-10  -1.2970816203498074E-10  -2.0480182183467918E-10  -2.4769715089098173E-10  -2.7774067760191256E-10  -2.9729854931756886E-10  -2.6774441746166874E-10  2.424039329803166E-10    1.8439126666230813E-10
2.8499999999999998E-5     -8.744990275724664E-11   -8.929690656721079E-11   -1.2090503571024044E-10  -1.692292551937014E-10   -2.446356558193706E-10   -2.9448910743173877E-10  -3.2148387095180114E-10  -3.362512352968665E-10   -3.0659981302568357E-10  2.8971014699040795E-10   2.465494636591726E-10
2.9E-5                    -1.2786830370127318E-10  -1.2458039015473194E-10  -1.3869252741293157E-10  -2.1286454481739777E-10  -2.8611521800673496E-10  -3.376308798374158E-10   -3.606513985982469E-10   -3.671492278939186E-10   -3.448803313679749E-10   3.389378637470028E-10    3.1753736080423095E-10
2.95E-5                   -1.7441120882045478E-10  -1.6395982895540524E-10  -1.6278143616211128E-10  -2.57883455298184E-10    -3.3002529722144237E-10  -3.7968755499497335E-10  -3.884892726346704E-10   -3.834502993835822E-10   -3.784974377338982E-10   3.883472352508307E-10    3.9338402907482904E-10
2.9999999999999997E-5     -2.2457168855718984E-10  -2.026080491655517E-10   -1.9458080862315935E-10  -3.0182777112606715E-10  -3.7654967769448026E-10  -4.193077864873812E-10   -4.0200517765900796E-10  -3.854388583595636E-10   -4.0304144850396035E-10  4.3496374057096517E-10   4.675975849104614E-10
3.05E-5                   -2.749620594995332E-10   -2.391194657137509E-10   -2.3118900717810127E-10  -3.433281168076503E-10   -4.23652062005074E-10    -4.4580912627048057E-10  -4.0407360770999714E-10  -3.8004384771907696E-10  -4.1461087342437313E-10  4.74862197440621E-10     5.336225246159818E-10
3.1E-5                    -3.236106419016063E-10   -2.745633452772387E-10   -2.665445994287904E-10   -3.8028792587647003E-10  -4.6554440312792453E-10  -4.466416953168854E-10   -3.989120778685426E-10   -3.7381489471549253E-10  -4.1017863797329553E-10  5.027337632382481E-10    5.870389907056792E-10
3.15E-5                   -3.698061940743557E-10   -3.0893269245650207E-10  -2.9487845843508526E-10  -4.0865913220734585E-10  -4.932301567704328E-10   -4.186189847358771E-10   -3.8575134561280583E-10  -3.65551017262963E-10    -3.8765316231786757E-10  5.118960348069993E-10    6.258400258058485E-10
3.2E-5                    -4.121031296649613E-10   -3.393588161784443E-10   -3.138499548897523E-10   -4.241823827033032E-10   -4.975988758701116E-10   -3.685057002869285E-10   -3.57836830125642E-10    -3.4560315121328127E-10  -3.454134103635669E-10   4.960179613735942E-10    6.486432352221941E-10
3.25E-5                   -4.473608631305336E-10   -3.6142021268336345E-10  -3.237963037637835E-10   -4.248781554851288E-10   -4.72932807031795E-10    -3.0241485500550815E-10  -3.069252089479714E-10   -3.0195203319539123E-10  -2.814224781042001E-10   4.514731632029552E-10    6.522846432598116E-10
3.2999999999999996E-5     -4.718061931862069E-10   -3.711441347505946E-10   -3.2371493583750876E-10  -4.1055422999863636E-10  -4.1794212051019837E-10  -2.1726531627614075E-10  -2.2707808641823306E-10  -2.2685848187762493E-10  -1.927619602889804E-10   3.7768556549376867E-10   6.306583647356614E-10
3.35E-5                   -4.821078413333278E-10   -3.654047508597405E-10   -3.089596918211756E-10   -3.795986647836892E-10   -3.3372628308426E-10     -1.0378326939433415E-10  -1.1409445869854446E-10  -1.186831087867615E-10   -7.619459943939327E-11   2.747250346740366E-10    5.756278496221416E-10
3.4E-5                    -4.746811508318956E-10   -3.410487475009853E-10   -2.737078879126566E-10   -3.2719076940324906E-10  -2.2097988819737926E-10  4.4094460373210014E-11   3.6374982819303895E-11   2.1072873813289205E-11   7.079779313047207E-11    1.40583650335662E-10     4.792776895904529E-10
3.45E-5                   -4.442587920951498E-10   -2.9429271411054E-10     -2.151642003904748E-10   -2.473151171124613E-10   -7.903678528481653E-11   2.2480786863510936E-10   2.2764247831508855E-10   1.919940671187001E-10    2.4950181390977056E-10   -2.9039472674938783E-11  3.3597989054362174E-10
3.5E-5                    -3.8395806465431605E-10  -2.209611102827647E-10   -1.3431623727763498E-10  -1.362297388728056E-10   9.314538418687619E-11    4.3313202569770814E-10   4.582129280796851E-10    3.9733333319316703E-10   4.600432599912862E-10    -2.3832592426601626E-10  1.431518938653667E-10
3.5499999999999996E-5     -2.871679405334765E-10   -1.1716181860306847E-10  -3.2567195991674777E-11  6.223610536387457E-12    2.9600965712264007E-10   6.657890289535294E-10    7.198493854966296E-10    6.435348189543284E-10    7.011272860302801E-10    -4.885399849145957E-10   -9.938044867778644E-11
3.6E-5                    -1.494442214734606E-10   1.9865602460163262E-11   9.130302406626072E-11    1.778960251646942E-10    5.295895202228542E-10    9.21705131488208E-10     1.000199808289806E-9     9.357745449223458E-10    9.689213018732088E-10    -7.767684500032375E-10   -3.905837653749099E-10
3.65E-5                   3.108475698061013E-11    1.9067637343694557E-10   2.3995964524096287E-10   3.7588923163749616E-10   7.937497188621747E-10    1.197283995921601E-9     1.2878559620046144E-9    1.2701938316869365E-9    1.2558225807527673E-9    -1.0963301388665515E-9   -7.288009224738543E-10
3.7E-5                    2.5442404701752687E-10   3.925125198527057E-10    4.133134601695179E-10    5.968772553949594E-10    1.08674349235628E-9      1.4823213422097393E-9    1.575002986254236E-9     1.6273631757546032E-9    1.5504255559194883E-9    -1.4379005374644144E-9   -1.1110100903928668E-9
3.75E-5                   5.192056720928648E-10    6.188328762809191E-10    6.058645919336372E-10    8.367529010288137E-10    1.4022560048928418E-9    1.7607933814079965E-9    1.854931958586658E-9     1.973595904641325E-9     1.839135716748045E-9     -1.7904613300005192E-9   -1.531178807893055E-9
3.7999999999999995E-5     8.223715946029254E-10    8.60324088753334E-10     8.082274617126057E-10    1.090461562169979E-9     1.7273218426650127E-9    2.0158351768321245E-9    2.116754789520406E-9     2.2721282644444255E-9    2.1083428397728207E-9    -2.1416470423275055E-9   -1.9789884814845554E-9
3.85E-5                   1.1585858200200616E-9    1.1075540706161864E-9    1.0108787280640337E-9    1.3517512357463486E-9    2.043503517077E-9        2.2344997208508753E-9    2.3427023173743453E-9    2.497169446301759E-9     2.3453638406105664E-9    -2.4775216409462345E-9   -2.4398774965765952E-9
3.9E-5                    1.520161067782222E-9     1.3537333258128543E-9    1.2062039372424175E-9    1.6122281110774176E-9    2.331244466713412E-9     2.4079282233236935E-9    2.5108908176742123E-9    2.639703888660883E-9     2.5373647805190374E-9    -2.7822162516140866E-9   -2.896175248375543E-9
3.95E-5                   1.8974994976956998E-9    1.5948405774240871E-9    1.3874698294057154E-9    1.8601664321254212E-9    2.5744407532008195E-9    2.526529276444231E-9     2.600822370215368E-9     2.7005804458121545E-9    2.669405289939313E-9     -3.0378968267749317E-9   -3.3283396736923805E-9
3.9999999999999996E-5     2.279129829474753E-9     1.8259785688680616E-9    1.5469374977290317E-9    2.080429737266035E-9     2.761619266578337E-9     2.574687651386889E-9     2.5965152112740327E-9    2.6780240174413897E-9    2.723666685479582E-9     -3.225081253195796E-9    -3.715559195664247E-9
4.0499999999999995E-5     2.6505591330389772E-9    2.0366893255991874E-9    1.6755942667338325E-9    2.2561470451441526E-9    2.8826264422443394E-9    2.530500735130796E-9     2.485607197476383E-9     2.5612136322615874E-9    2.6807866415844977E-9    -3.3229524991397363E-9   -4.035647623279276E-9
4.1E-5                    2.992576823490528E-9     2.2097682348951123E-9    1.7641605309432586E-9    2.371018461614468E-9     2.9235419713194477E-9    2.3715492247169035E-9    2.2574042003712785E-9    2.3344845798745057E-9    2.522324982164662E-9     -3.3096231821153226E-9   -4.264548635577904E-9
4.15E-5                   3.2808638476057176E-9    2.325046224504739E-9     1.8032489858051194E-9    2.4104312975669586E-9    2.864212437301675E-9     2.0822746711410882E-9    1.903126311388994E-9     1.9862169059606606E-9    2.2328619054319357E-9    -3.162968721281322E-9    -4.375828051522966E-9
4.2E-5                    3.4879895802850173E-9    2.364738130201137E-9     1.782024789713547E-9     2.361016917015167E-9     2.6807106049056766E-9    1.6575279072413131E-9    1.41819331578985E-9      1.513512770916478E-9     1.8013351493127562E-9    -2.862666885999625E-9    -4.340550287016102E-9
4.2499999999999996E-5     3.5866074699289088E-9    2.315761889499922E-9     1.6870966243577958E-9    2.2101846119022432E-9    2.35118655839156E-9      1.1004536113411528E-9    8.040670850644897E-10    9.197057583109285E-10    1.2221901177166728E-9    -2.393097989828301E-9    -4.128071290522128E-9
4.2999999999999995E-5     3.5515452263408903E-9    2.1678963929639827E-9    1.5035554620550558E-9    1.9470972584295937E-9    1.8614997874527154E-9    4.17326090949303E-10     6.796157016681509E-11    2.0867232276289743E-10   4.965396393028656E-10    -1.7456789723889852E-9   -3.7083627983645108E-9
4.35E-5                   3.3599543568695434E-9    1.910544705669644E-9     1.2182600108259679E-9    1.5646897404329587E-9    1.2079752736797384E-9    -3.858776498576791E-10   -7.792730894778308E-10   -6.186228513750348E-10   -3.6734068214325467E-10  -9.193166550904421E-10   -3.055975369546581E-9
4.4E-5                    2.9908857188240637E-9    1.531467078202121E-9     8.239758373636978E-10    1.0612015455139968E-9    3.9692481550425846E-10   -1.3018252008522104E-9   -1.725305772163019E-9    -1.5627205339561872E-9   -1.3547732850960738E-9   8.082103186363287E-11    -2.1544801938602302E-9
4.45E-5                   2.4259542613963903E-9    1.0186569516327657E-9    3.227745343900781E-10    4.4050675526235587E-10   -5.577891843030056E-10   -2.3163969148008327E-9   -2.7560607397906977E-9   -2.6197083556412714E-9   -2.446192412686396E-9    1.2444299095194815E-9    -9.993354497963694E-10
4.4999999999999996E-5     1.6512060761166377E-9    3.64279858523287E-10     -2.726362254685714E-10   -2.882480339655607E-10   -1.6373066081944713E-9   -3.404881301679146E-9    -3.851713673311147E-9    -3.773126900083776E-9    -3.6180470347386366E-9   2.555339622355312E-9     4.019196832105957E-10
4.5499999999999995E-5     6.591714820661878E-10    -4.3124083469492214E-10  -9.405999379279603E-10   -1.1111131652231316E-9   -2.818824275490978E-9    -4.533730433377757E-9    -4.981196805011044E-9    -4.988147624488233E-9    -4.842125709498166E-9    3.989079733396555E-9     2.0309837079475256E-9
4.6E-5                    -5.49468135505996E-10    -1.356635982424766E-9    -1.654930027835228E-9    -2.0098978104431676E-9   -4.074700546854602E-9    -5.665406274261244E-9    -6.100371753099326E-9    -6.2125163460286385E-9   -6.083757446171444E-9    5.510861904246161E-9     3.859441514099298E-9
4.65E-5                   -1.9643020361595025E-9   -2.3896236914121242E-9   -2.389823972383323E-9    -2.962829292420373E-9    -5.3709088303913E-9      -6.760264319668468E-9    -7.156786999742864E-9    -7.384701558327848E-9    -7.300533196048533E-9    7.075970724766719E-9     5.847985830478633E-9
4.7E-5                    -3.56347558622577E-9     -3.4991293938444738E-9   -3.122273420538701E-9    -3.944773952103476E-9    -6.666808792407688E-9    -7.773747181426488E-9    -8.09762590570175E-9     -8.44400396585465E-9     -8.443011738279611E-9    8.632303996582224E-9     7.945437487725394E-9
4.7499999999999996E-5     -5.312390106433554E-9    -4.648749667146008E-9    -3.83081576810028E-9     -4.9262062227842434E-9   -7.916661938458549E-9    -8.653934818722459E-9    -8.874161191672634E-9    -9.335948313215602E-9    -9.45744210306471E-9     1.0122851068779245E-8    1.0088970479045205E-8
4.8E-5                    -7.16365953502063E-9     -5.799495461416955E-9    -4.49247188734585E-9     -5.870773367906421E-9    -9.071181031025553E-9    -9.344626970624173E-9    -9.440051459919068E-9    -1.001095056526005E-8    -1.0289200871383399E-8   1.1486415877460987E-8    1.2205571419090808E-8
4.85E-5                   -9.058465959669423E-9    -6.910118194896538E-9    -5.080786696537974E-9    -6.733028942569554E-9    -1.0077520244927531E-8   -9.792530249165398E-9    -9.74766830726172E-9     -1.042021861036314E-8    -1.0885576870319338E-8   1.2657221935752844E-8    1.421381937326516E-8