% Model:              Untitled.mph
% Version:            COMSOL 6.0.0.405
% Date:               Jul 17 2025, 04:09
% Dimension:          1
% Nodes:              401
% Expressions:        11
% Description:        Point graph
% Time (s)                Displacement field, Y component Displacement field, Y component Displacement field, Y component Displacement field, Y component Displacement field, Y component Displacement field, Y component Displacement field, Y component Displacement field, Y component Displacement field, Y component Displacement field, Y component Displacement field, Y component
0                         -1.1053770273906284E-35  -4.360297604691037E-36   -6.822254624955877E-35   -1.0276375296420831E-33  1.2898330661681881E-33   -3.1143098173354087E-34  -2.030214847582782E-34   1.5375468746860638E-35   7.587077986232467E-39    5.47247172026622E-34     3.204919846242187E-34
5.0E-7                    -2.132265290392989E-26   8.401911578291424E-28    1.3866054762260942E-26   -2.0086838547592054E-24  -9.152049437152568E-26   -3.9227255701255885E-26  1.7793818506445977E-26   -2.9413813976118447E-27  -9.487586503238099E-31   -1.1293119403021324E-24  -3.8240315772217913E-26
1.0E-6                    1.1900591004554595E-25   -2.2796729538646927E-27  6.679418336752214E-26    1.7710830257703663E-23   7.16600542485313E-24     -1.6215083566709129E-25  -1.67324820163726E-25    -1.7428456003513257E-27  -1.8824671311823524E-30  -2.2580192612420477E-24  9.009329269756925E-26
1.5E-6                    -3.097821019215748E-26   -4.1200852619867753E-26  -2.281893444960836E-25   -1.1235914437410385E-23  -6.559167326713018E-23   -5.085399521553955E-25   -3.0382326137349444E-25  5.633056442427955E-26    -1.1760477745896093E-29  6.199294692018758E-23    -2.694110269246973E-25
2.0E-6                    -1.8761653679888474E-24  6.668342327927829E-26    -1.0245163461487766E-24  -2.268578922738075E-22   4.934087825413375E-23    -5.182076906636598E-24   -1.0425315414786449E-25  -3.6541924994900296E-25  -2.629947070716229E-28   -2.5577081033794714E-22  1.8247228169231026E-24
2.4999999999999998E-6     2.3546416465330434E-24   1.952952432206212E-25    -1.3989422927705718E-24  3.892394552271266E-22    6.749127549440369E-22    5.057288276170111E-24    -3.8958118855305486E-24  7.077949361495871E-25    -1.1226803113164701E-27  -1.080218040647779E-22   -4.739808403419856E-24
3.0E-6                    1.7645320826238376E-23   -1.2074014181118335E-24  -1.1985818666416246E-23  1.497343403868819E-21    -2.0576217663740482E-21  2.672343324340075E-23    1.8798043145192878E-24   -6.052749698417132E-25   -5.3693420445100485E-27  2.008327976007982E-21    7.126498743974305E-24
3.5E-6                    -4.1082888396697647E-23  -6.814500244581325E-24   -8.180514333977419E-24   -6.0606403048582145E-21  -3.675242278582226E-21   -9.725011531780255E-23   1.8020251004374234E-23   -7.232225161108608E-24   -3.350348320033577E-26   -1.2703687382989392E-21  6.189682455190146E-23
4.0E-6                    -1.5353641080229096E-22  -1.8754342410304734E-23  8.034918068296108E-23    -2.0063602213244222E-20  6.931680635149703E-21    3.018685039026277E-23    -1.0243738432876456E-22  7.498948686406065E-24    -9.317297020518632E-26   5.194795783055012E-21    1.0293038383650821E-23
4.5E-6                    2.781822937316802E-22    -2.3708042359251193E-23  8.540165182318696E-23    -1.53362167158244E-20    -1.8783932199146034E-21  4.687884014448292E-22    -3.546100379940318E-22   3.847425179007663E-24    -2.45245549460774E-25    3.84630790564551E-20     1.2331651680026362E-22
4.9999999999999996E-6     4.264836092474779E-22    -3.8685750898730923E-22  -1.0449348700189517E-21  -8.57622228207164E-21    -2.7912065256502265E-21  -1.7575286274527316E-21  2.914772749865113E-22    -1.3645409185352316E-22  -8.69962155006038E-25    -3.141177885779637E-20   9.989965193576855E-22
5.5E-6                    -4.032144164784773E-21   -2.2563197058792313E-21  -8.105026858289118E-21   1.2899690583586687E-19   7.02259412029248E-20     -8.472748592581414E-21   9.09065224652373E-22     -8.700078489567376E-23   -1.4893417959889763E-24  -1.5108604208262944E-19  1.098676586744106E-21
6.0E-6                    -9.039916678429972E-21   -5.9188395272761065E-21  -3.777217085049253E-20   5.1489400546912065E-19   -1.3567447234338887E-19  -1.1038157992957267E-20  -8.395949014407377E-21   5.554066637758074E-22    -8.737468275829703E-25   2.305407688887431E-19    6.570386270120705E-22
6.5E-6                    -1.2291277190326836E-21  -1.7980226133371555E-20  -1.4708840548003552E-19  -7.055736722787982E-19   -5.662125879913715E-19   7.412609884543507E-21    -2.7352717236573407E-20  -5.423619000244581E-22   -4.292882464667447E-24   1.2819324347680078E-18   1.517945893231702E-20
7.0E-6                    -3.030041564326071E-20   -7.596910374811748E-20   -4.9783087509867E-19     -5.468032491756055E-18   7.035038572059895E-19    2.477414739190613E-20    6.429891192392187E-21    -5.290899988392996E-21   -1.7040972012885847E-23  2.9561794951270175E-18   6.470690589107105E-20
7.499999999999999E-6      -2.183333355213618E-19   -2.2794306486470554E-19  -1.4145892740424245E-18  -6.026593607963697E-18   3.177186031718287E-18    -9.967440656661529E-20   1.1228111958703375E-19   -2.0658767200866918E-21  -4.066510973935842E-23   6.843644400234157E-18    1.2827552957252109E-19
8.0E-6                    -5.033379509726892E-19   -4.937700252691174E-19   -3.686388773129622E-18   4.734656955187235E-18    -2.962377917568265E-18   -5.211439003346421E-19   -1.098489916898058E-19   9.015579441091345E-21    -2.001039051399651E-22   1.6670971103657516E-17   2.189411722056912E-19
8.5E-6                    -7.689772987052166E-19   -1.1121521233022146E-18  -1.0348119924079895E-17  -1.434140997298861E-17   -2.4583148949102687E-17  -1.1171842098837645E-18  -1.1438208653932313E-18  -4.772782638266646E-20   -8.957959931917182E-22   4.466182912746211E-17    7.300359345412472E-19
9.0E-6                    -1.931114182407431E-18   -2.786579865507953E-18   -3.1413658028674884E-17  -1.4988205396926266E-16  -3.792242032368846E-17   -1.9712888858462234E-18  -1.7141077771305996E-18  -1.9830847477522442E-19  -2.8281440721989833E-21  1.4630189391705282E-16   2.555256643455248E-18
9.499999999999999E-6      -5.2645292931740314E-18  -6.059175399727035E-18   -9.348987228159508E-17   -4.1135857887856066E-16  -3.4053909664052125E-17  -5.21286131275339E-18    7.979887687483325E-20    -1.9262872202422581E-19  -8.194942664377328E-21   4.737431147377794E-16    6.5620675730138E-18
9.999999999999999E-6      -8.874179588570206E-18   -1.2713874188234094E-17  -2.6653497993868254E-16  -7.654700073897465E-16   -1.8673561032205607E-16  -1.701060273839498E-17   -2.1801146176269436E-18  -1.3468220371680894E-19  -2.404899652559263E-20   1.2728798416527933E-15   1.4241093324267403E-17
1.05E-5                   -1.3495682377874013E-17  -3.5276879670515447E-17  -7.386886633869252E-16   -1.7701410008754094E-15  -8.676365708987572E-16   -5.374033768572207E-17   -2.4181307153075966E-17  -1.5793699163646626E-18  -6.624064397589935E-20   2.981611165942774E-15    3.177860889549548E-17
1.1E-5                    -4.372486152524621E-17   -1.0871893321982718E-16  -1.9730000583249323E-15  -5.383345115778649E-15   -2.2780320683052945E-15  -1.6707850770388432E-16  -6.270573068512333E-17   -5.950704278422528E-18   -1.7956041121406925E-19  7.108552428617062E-15    7.893137273848103E-17
1.15E-5                   -1.425775793560776E-16   -2.9217093046901577E-16  -5.035599714901544E-15   -1.4851991908781583E-14  -4.677886766971956E-15   -4.852865230048568E-16   -8.92241977390218E-17    -1.220841777169042E-17   -5.320513247932754E-19   1.8201423784490594E-14   2.057431164825376E-16
1.2E-5                    -3.1392603488657386E-16  -6.986122265156012E-16   -1.2518385166757624E-14  -3.534958721921762E-14   -1.0751174611048068E-14  -1.236858422535278E-15   -1.6261719497675952E-16  -2.5425223162314678E-17  -1.6435855300304725E-18  4.601297585194803E-14    5.054387111599008E-16
1.2499999999999999E-5     -5.634811899234215E-16   -1.6498763436446764E-15  -3.1016258200006085E-14  -8.053844109439243E-14   -2.8728023113993345E-14  -2.8618579861673216E-15  -5.614574622114261E-16   -7.58939091773846E-17    -4.8366519791063635E-18  1.0834349595935819E-13   1.121051008862951E-15
1.3E-5                    -1.2211675957649136E-15  -4.010049468644651E-15   -7.615187750547867E-14   -1.8557125347117595E-13  -7.260463178106786E-14   -6.699328381753742E-15   -1.622349443898089E-15   -2.2376678352501625E-16  -1.3518888544831503E-17  2.4012308870226537E-13   2.3982133107409654E-15
1.35E-5                   -3.2654650255923895E-15  -9.772313104480305E-15   -1.8075554731792703E-13  -4.209530981618482E-13   -1.6311910031511414E-13  -1.6749165071338506E-14  -3.465051999884055E-15   -5.633684304093532E-16   -3.720630258187672E-17   5.156190267548565E-13    5.417369163980801E-15
1.4E-5                    -8.168246477409288E-15   -2.3433278292086647E-14  -4.082419565684742E-13   -9.135081951138839E-13   -3.441449341720173E-13   -4.200450637972195E-14   -6.751268236524958E-15   -1.3399349223839469E-15  -1.0159720102131086E-16  1.0794723267447482E-12   1.2677702830280531E-14
1.45E-5                   -1.811080497026004E-14   -5.5241569866257136E-14  -8.765809858658498E-13   -1.889499488052468E-12   -7.195169117086448E-13   -9.838730822604822E-14   -1.4973266709247236E-14  -3.2638523713072012E-15  -2.702941939936762E-16   2.1692568218282137E-12   2.8476967671095514E-14
1.4999999999999999E-5     -3.900634667782344E-14   -1.2700080523507158E-13  -1.7948327986489466E-12  -3.7221426933075624E-12  -1.483332585117591E-12   -2.126111544046371E-13   -3.583074371287925E-14   -7.93606446687953E-15    -6.935528813644854E-16   4.127970751305214E-12    6.023871190516931E-14
1.55E-5                   -8.685832367517792E-14   -2.801291978144068E-13   -3.4943631806720282E-12  -6.9487180292096295E-12  -2.913170109464811E-12   -4.3570562744975094E-13  -7.91809385283022E-14    -1.8460844213023018E-14  -1.7241898649640817E-15  7.432086250727573E-12    1.241556866582948E-13
1.6E-5                    -1.932706546963989E-13   -5.86558534248932E-13    -6.412468296260599E-12   -1.2271118090947726E-11  -5.353423890939309E-12   -8.706447196693293E-13   -1.572807389432177E-13   -4.10291049832827E-14    -4.17502974059307E-15    1.2690152602731602E-11   2.5602381094003827E-13
1.6499999999999998E-5     -4.069567857368014E-13   -1.1651985299973786E-12  -1.0988510145343582E-11  -2.047176900904826E-11   -9.24489284591509E-12    -1.6990056676142059E-12  -2.999746882290261E-13   -8.850627178395047E-14   -9.829365460914327E-15   2.0403923618925368E-11   5.2158200390924E-13
1.7E-5                    -7.98786213208572E-13    -2.20196105240906E-12    -1.747039446148373E-11   -3.190383397380354E-11   -1.5130984060886687E-11  -3.1753115234940795E-12  -5.816003445023625E-13   -1.8608854271432727E-13  -2.2393857457674983E-14  3.038665051187255E-11    1.021528078890095E-12
1.75E-5                   -1.4812122826435516E-12  -3.952921957149597E-12   -2.5677996651785586E-11  -4.54487728401968E-11    -2.3413580763831255E-11  -5.582022915342629E-12   -1.1253021737871397E-12  -3.7848731814933854E-13  -4.9260542743735543E-14  4.132542780514033E-11    1.903845587513295E-12
1.8E-5                    -2.624382965791932E-12   -6.6914445858200485E-12  -3.4828067265210376E-11  -5.801345221574581E-11   -3.3807258742321664E-11  -9.187173981747453E-12   -2.062865046863501E-12   -7.388806916284564E-13   -1.0462850884658958E-13  5.1288109405530606E-11   3.410972568457208E-12
1.85E-5                   -4.408135472254727E-12   -1.057485010908948E-11   -4.359424167788809E-11   -6.610260583448397E-11   -4.4957979009781297E-11  -1.421798422496046E-11   -3.508972530204838E-12   -1.3780086544172446E-12  -2.1439059598033124E-13  5.89910735276911E-11     5.944195010874825E-12
1.8999999999999998E-5     -6.868836110134711E-12   -1.547104725127254E-11   -5.052924097009445E-11   -6.87294068853905E-11    -5.484259846527902E-11   -2.0731858343006447E-11  -5.6333716741178826E-12  -2.444623323553028E-12   -4.2241034026588114E-13  6.428043415245018E-11    9.994000921142858E-12
1.95E-5                   -9.727158705413856E-12   -2.0856763676509352E-11  -5.4655091460338016E-11  -6.810063191108923E-11   -6.179976908052825E-11   -2.8272214308156675E-11  -8.726917850747805E-12   -4.105089776353294E-12   -7.964208345266321E-13   6.693643480181637E-11    1.5714824770037637E-11
1.9999999999999998E-5     -1.2397943879272487E-11  -2.5893550994444954E-11  -5.567778308469121E-11   -6.61911266825506E-11    -6.51257113502127E-11    -3.5557391522466395E-11  -1.2936952098487758E-11  -6.498120737483975E-12   -1.429885280470171E-12   6.537013920288464E-11    2.222315136393582E-11
2.05E-5                   -1.4278772445514203E-11  -2.967778107943269E-11   -5.3524235053460575E-11  -6.091611941442428E-11   -6.447286162799365E-11   -4.075297177812519E-11   -1.761648519768488E-11   -9.663965470802736E-12   -2.433888542289873E-12   5.7301411488438635E-11   2.7328094662678757E-11
2.1E-5                    -1.5114020327443294E-11  -3.1532166462241234E-11  -4.771438578670389E-11   -4.7175266425211644E-11  -5.87272670647579E-11    -4.239031868550589E-11   -2.1023677413939088E-11  -1.3434158879415309E-11  -3.91174662631883E-12    4.167936924864286E-11    2.8524192374826718E-11
2.1499999999999997E-5     -1.5095585861508578E-11  -3.117158658833815E-11   -3.734704113751733E-11   -2.1949599995347152E-11  -4.582909933977481E-11   -4.00499551700783E-11    -2.1295608980500896E-11  -1.7290857984648523E-11  -5.911813228159854E-12   1.9130331562812745E-11   2.4888229430162136E-11
2.2E-5                    -1.462271044273205E-11   -2.8645028132396185E-11  -2.156062758740754E-11   1.305131130487358E-11    -2.4006596657732224E-11  -3.3993136022182164E-11  -1.8180528083172658E-11  -2.031630367848101E-11   -8.364347042629659E-12   -9.658419565437059E-12   1.797940934161097E-11
2.2499999999999998E-5     -1.3972083374495742E-11  -2.406728033116566E-11   4.312593248677939E-13    5.4538256352447004E-11   6.788010403146325E-12    -2.4265311829722456E-11  -1.3347906443144902E-11  -2.142233969105182E-11   -1.102667858052436E-11   -4.5423335210335385E-11  1.030172314478983E-11
2.3E-5                    -1.3072000927957882E-11  -1.7288473292572626E-11  2.9804706426124147E-11   1.0232627905680435E-10   4.485213781423865E-11    -1.0457555589798234E-11  -8.208482936318993E-12   -1.983554961738759E-11   -1.3481171335454054E-11  -9.020728118093171E-11   2.6910060802954043E-12
2.35E-5                   -1.13256468927102E-11    -7.752211937199465E-12   6.804343033301394E-11    1.5979258466992434E-10   8.830453311802617E-11    7.840562081709602E-12    -1.7858511785724042E-12  -1.543405845533689E-11   -1.5231505672262726E-11  -1.4632040838826681E-10  -6.279005648407611E-12
2.4E-5                    -7.537111392610327E-12   5.312562089296251E-12    1.160453983736515E-10    2.3011864237483468E-10   1.3670255142494583E-10   3.0869663174003864E-11   7.928510384196018E-12    -8.576480981728573E-12   -1.5888056331659804E-11  -2.1510180400720745E-10  -1.80693439112679E-11
2.45E-5                   -2.855991306475279E-13   2.2546299413211223E-11   1.737119094359911E-10    3.130095928831515E-10    1.9110495347605374E-10   5.887931635714826E-11    2.0423840529373832E-11   2.9711650394993015E-13   -1.5319701477086694E-11  -2.956691135965204E-10   -3.206474971608108E-11
2.4999999999999998E-5     1.1205435932460255E-11   4.4295914706354306E-11   2.406150814512686E-10    4.050572259453458E-10    2.5275073919865396E-10   9.175339870318783E-11    3.2380138210113095E-11   1.0688314717047955E-11   -1.3586757538705282E-11  -3.8473681500494833E-10  -4.6423116738129975E-11
2.55E-5                   2.64444723270566E-11     7.069119962658734E-11    3.162373739006818E-10    5.024230647766329E-10    3.2188212642284013E-10   1.2827834628693798E-10   4.211862642367439E-11    2.1815207239586907E-11   -1.0625799849665638E-11  -4.783256257909297E-10   -6.068712489212765E-11
2.6E-5                    4.408301966174596E-11    1.0172208740972023E-10   3.9877264416691265E-10   6.023573922233306E-10    3.9751324824544255E-10   1.6650142132954152E-10   5.266365447855525E-11    3.297722855377455E-11    -5.987355403029911E-12   -5.735357136109524E-10   -7.664806480738128E-11
2.65E-5                   6.30297258192579E-11     1.372162822621428E-10    4.842919224391867E-10    7.018552958908171E-10    4.775242629134718E-10    2.0527908516274652E-10   6.829160657848743E-11    4.449195619308699E-11    9.72518957274978E-13     -6.678986633847948E-10   -9.64669533611906E-11
2.7E-5                    8.305422306715785E-11    1.7682223710854355E-10   5.68135009171305E-10     7.953007864527495E-10    5.58519978415353E-10     2.4498492098865367E-10   8.900903522631686E-11    5.7789710497571326E-11   1.050267777512574E-11    -7.572223378996945E-10   -1.2049416554375122E-10
2.7499999999999998E-5     1.0432685495694025E-10   2.1992947001208777E-10   6.468360829493345E-10    8.744248707268508E-10    6.358617531451071E-10    2.8614568428312935E-10   1.1077221447301023E-10   7.397494834477979E-11    2.212951094337177E-11    -8.350373673453738E-10   -1.469641200455643E-10
2.8E-5                    1.2666263329394136E-10   2.653810064350927E-10    7.176072562939944E-10    9.311998775787481E-10    7.042046296631365E-10    3.2763658684873265E-10   1.305196458225023E-10    9.256285779226509E-11    3.511627064805617E-11    -8.941176719318592E-10   -1.7302639358788582E-10
2.8499999999999998E-5     1.494162237992145E-10    3.1124808351268695E-10   7.760030500742197E-10    9.602194511120714E-10    7.579919532155802E-10    3.666389312239863E-10    1.4818360378537376E-10   1.1229802899768096E-10   4.9277756444340306E-11   -9.276011418294195E-10   -1.955896850799101E-10
2.9E-5                    1.719171531482071E-10    3.5504701438285974E-10   8.151042614496737E-10    9.571154745908683E-10    7.913559079590747E-10    3.9997395866533806E-10   1.6371670337937746E-10   1.329309582099155E-10    6.515189169502919E-11    -9.285174457198851E-10   -2.1180828869363823E-10
2.95E-5                   1.935923556969301E-10    3.940947737737929E-10    8.270313803822702E-10    9.145033940135635E-10    7.977291552323685E-10    4.2464552462387513E-10   1.7520555436119967E-10   1.5505978442323772E-10   8.328629828751481E-11    -8.891754555108397E-10   -2.1986003297035428E-10
2.9999999999999997E-5     2.1338240252301616E-10   4.2541728270621536E-10   8.043425494153712E-10    8.20712001444412E-10     7.698874572134933E-10    4.370273167422579E-10    1.8095837083221974E-10   1.7782301033120845E-10   1.0354233588391872E-10   -8.015754990035866E-10   -2.1967398495108315E-10
3.05E-5                   2.2904074435634313E-10   4.454690480960426E-10    7.399612902813156E-10    6.636413837448054E-10    7.008002582938075E-10    4.3245725257884545E-10   1.8089121709571085E-10   1.9758681921729354E-10   1.2519124193149349E-10   -6.580997070349141E-10   -2.1242608100628222E-10
3.1E-5                    2.373163413174844E-10    4.503582910084862E-10    6.268644023535879E-10    4.357502102112026E-10    5.849716104583654E-10    4.064508541702531E-10    1.7426272065102303E-10   2.0970077069633874E-10   1.473573959541471E-10    -4.5161691526576227E-10  -1.9868469871777565E-10
3.15E-5                   2.35344182302215E-10     4.3630618022359603E-10   4.584891496649616E-10    1.3483045843932858E-10   4.191444012073819E-10    3.5626114227345125E-10   1.5791691956210978E-10   2.1146781068387285E-10   1.6894583718376196E-10   -1.7559626847892456E-10  -1.7684425792206172E-10
3.2E-5                    2.2216944898197147E-10   3.995716504913663E-10    2.2946858258265936E-10   -2.3920332571126566E-10  2.012408164681534E-10    2.8086232100306076E-10   1.285819625554049E-10    2.031938085178063E-10    1.8822083209298602E-10   1.7475343149744195E-10   -1.4348651485574184E-10
3.25E-5                   1.9859156936122052E-10   3.3628419784506887E-10   -6.34682984788601E-11    -6.865245277646025E-10   -7.17782904406617E-11    1.7944837211547837E-10   8.586351125526684E-11    1.866025704661098E-10    2.0297804750063982E-10   6.006729655648912E-10    -9.534653039849467E-11
3.2999999999999996E-5     1.648161634410025E-10    2.4321744667532954E-10   -4.2059698566058177E-10  -1.205943500611322E-9    -4.044547864684938E-10   5.0332477777888426E-11   3.148649716599756E-11    1.6228380489832187E-10   2.1142393019268243E-10   1.0989226230806301E-9    -3.100543742327702E-11
3.35E-5                   1.1797934096672233E-10   1.188497174025483E-10    -8.394054417491645E-10   -1.7922894067632099E-9   -8.001274890303525E-10   -1.0843364090484106E-10  -3.3722519543948104E-11  1.2806865647125671E-10   2.126418532924726E-10    1.6623482928691628E-9    4.8947391417761225E-11
3.4E-5                    5.2524386703186376E-11   -3.702762349515549E-11   -1.315871696816411E-9    -2.4354402056931922E-9   -1.2569585794273741E-9   -2.9735452277565876E-10  -1.1072224720258469E-10  7.944329308967115E-11    2.0581798130030243E-10   2.280539027161177E-9     1.4279255978846085E-10
3.45E-5                   -3.598654320775851E-11   -2.2482044179861323E-10  -1.8442385128466277E-9   -3.120125298988497E-9    -1.766195652711255E-9    -5.144486312207932E-10   -2.0028683259759771E-10  1.1994096460820049E-11   1.8897986835411975E-10   2.939095434067934E-9     2.483803733782279E-10
3.5E-5                    -1.4660739699972257E-10  -4.452532577559291E-10   -2.4139806462249257E-9   -3.824771258190145E-9    -2.3134391556447533E-9   -7.557624246290173E-10   -3.010594750438429E-10   -7.582702276707267E-11   1.5880701583301555E-10   3.6181946577453066E-9    3.6313960153348023E-10
3.5499999999999996E-5     -2.723284151199486E-10   -6.972456352218291E-10   -3.0071599832757635E-9   -4.5206265955304045E-9   -2.88064196202477E-9     -1.0164316874161316E-9   -4.0964723048233625E-10  -1.8211275833334157E-10  1.1200069841299124E-10   4.292245066828719E-9     4.837526377829021E-10
3.6E-5                    -4.043525450552461E-10   -9.759754983676759E-10   -3.5998173463469707E-9   -5.173264002322009E-9    -3.447070741428481E-9    -1.290635578868306E-9    -5.220559730983674E-10   -3.0356717719163224E-10  4.693112263030171E-11    4.930893091149433E-9     6.060040988732572E-10
3.65E-5                   -5.38350964138659E-10    -1.2734623643190922E-9   -4.165874599159995E-9    -5.745321988128492E-9    -3.989515992050522E-9    -1.5703208664901802E-9   -6.34528976040038E-10    -4.3768624382274227E-10  -3.613779667945991E-11   5.500095346340062E-9     7.24962647349498E-10
3.7E-5                    -6.770975708286841E-10   -1.580667165907295E-9    -4.678755867221632E-9    -6.1975674212790605E-9   -4.482152733521764E-9    -1.8441898548468888E-9   -7.427370662276788E-10   -5.824520716503031E-10   -1.3640892702260804E-10  5.962584911372003E-9     8.352618324816162E-10
3.75E-5                   -8.258254230934206E-10   -1.8883205177205746E-9   -5.109301000588058E-9    -6.488450212905411E-9    -4.8957539778407485E-9   -2.098026234748536E-9    -8.404280693757093E-10   -7.34149312365629E-10    -2.538306192336226E-10   6.278403205842657E-9     9.311008241969801E-10
3.7999999999999995E-5     -9.83057346392163E-10    -2.1855778451265136E-9   -5.423572924443923E-9    -6.5753244688553754E-9   -5.1970507462398385E-9   -2.3159994672077602E-9   -9.197398122657612E-10   -8.862263080935954E-10   -3.8867562548756956E-10  6.4062403777204445E-9    1.0059702954186104E-9
3.85E-5                   -1.1353432907365002E-9   -2.4582656525003497E-9   -5.584219420691671E-9    -6.4181911372965494E-9   -5.350207131220352E-9    -2.4821280273680404E-9   -9.733067717627948E-10   -1.0307026216814936E-9   -5.397357547547637E-10   6.305421742420162E-9     1.0527475327568768E-9
3.9E-5                    -1.2622366129469525E-9   -2.688745567467525E-9    -5.55467619040946E-9     -5.982635437832777E-9    -5.320594958391345E-9    -2.5813680400565214E-9   -9.954705930005967E-10   -1.1604978123041532E-9   -7.029626262804036E-10   5.937839905022472E-9     1.0646872097425983E-9
3.95E-5                   -1.3479254503202084E-9   -2.8576226315522307E-9   -5.3024750187098834E-9   -5.239397206803047E-9    -5.078166751043802E-9    -2.5998976625945107E-9   -9.81052398840453E-10    -1.2699717023672514E-9   -8.718046578405164E-10   5.26955289895972E-9      1.0366887392391024E-9
3.9999999999999996E-5     -1.3883417069905897E-9   -2.9460258573153446E-9   -4.799604300630528E-9    -4.1628854309547765E-9   -4.598107382739216E-9    -2.5246015096701382E-9   -9.240512844587909E-10   -1.3529318943174526E-9   -1.0387513740851062E-9   4.272610044188218E-9     9.65522651562727E-10
4.0499999999999995E-5     -1.3868264677372045E-9   -2.9371134245008257E-9   -4.0217095439025345E-9   -2.7328035431163984E-9   -3.85985406718166E-9     -2.3427400246941795E-9   -8.18871761990787E-10    -1.4001837687359924E-9   -1.1966400072009614E-9   2.9277438232986446E-9    8.487840238263735E-10
4.1E-5                    -1.343519570931182E-9    -2.8161976902883842E-9   -2.949221661603227E-9    -9.39467029992314E-10    -2.8474227932254947E-9   -2.042920590045979E-9    -6.624537580254312E-10   -1.399471196625035E-9    -1.3387074136406976E-9   1.2275673323079597E-9    6.840566669176004E-10
4.15E-5                   -1.2496689074344803E-9   -2.569844543976421E-9    -1.5710913333714158E-9   1.2105199514524845E-9    -1.5521252785972162E-9   -1.617135431870309E-9    -4.540024056139546E-10   -1.338410810318909E-9    -1.457513027511975E-9    -8.208376040170157E-10   4.69715072114996E-10
4.2E-5                    -1.0915535571205102E-9   -2.185244720709635E-9    1.1121600923909314E-10   3.691392375602777E-9     2.3993489431042422E-11   -1.0623984864079701E-9   -1.9300378306289455E-10  -1.2079306987289673E-9   -1.5438709925234154E-9   -3.1945688768032737E-9   2.0679262219763156E-10
4.2499999999999996E-5     -8.583932916620499E-10   -1.651227792568896E-9    2.082102007690652E-9     6.458490923256289E-9     1.866053630911856E-9     -3.809809940874811E-10   1.2061603587701412E-10   -1.0032891676417771E-9   -1.5869837898010696E-9   -5.854499907536124E-9    -1.0003757391531863E-10
4.2999999999999995E-5     -5.463737883127941E-10   -9.608582564918297E-10   4.3125610944211864E-9    9.449882740032752E-9     3.945931396947066E-9     4.201817875651466E-10    4.833986542321568E-10    -7.226211053893373E-10   -1.5757383306209758E-9   -8.74518066154297E-9     -4.432471934508257E-10
4.35E-5                   -1.573321579304535E-10   -1.1396019992215247E-10  6.760590375263831E-9     1.2587281351869931E-8    6.222615746725301E-9     1.3295664282193302E-9    8.861672932601878E-10    -3.6559246043049103E-10  -1.4998204096297021E-9   -1.1794522036092675E-8   -8.137404750052911E-10
4.4E-5                    3.034393577678361E-10    8.818908457860845E-10    9.369407048000257E-9     1.577551344556605E-8     8.642689088294602E-9     2.3302141341986546E-9    1.3155805133789974E-9    6.611367992100201E-11    -1.349694477077126E-9    -1.4913240705795633E-8   -1.2009268629157858E-9
4.45E-5                   8.267110003634661E-10    2.011774557715501E-9     1.2065176266741848E-8    1.8901984925174656E-8    1.114100037974946E-8     3.398980828243033E-9     1.7571755563237519E-9    5.675502075246254E-10    -1.116232152687759E-9    -1.799490953081488E-8    -1.591592766505033E-9
4.4999999999999996E-5     1.397539173217581E-9     3.254136350010221E-9     1.4757506962550795E-8    2.1838697393404423E-8    1.3641448786813937E-8    4.506860084820248E-9     2.1959525549608665E-9    1.1303119237027384E-9    -7.914554905771946E-10   -2.0917729845845E-8      -1.9692454355726485E-9
4.5499999999999995E-5     1.995984416498345E-9     4.581044426786878E-9     1.734308891532222E-8     2.4447468745089075E-8    1.605731919899618E-8     5.61991818262861E-9      2.614299869046254E-9     1.7432760561654182E-9    -3.7050205604045385E-10  -2.35481250752369E-8     -2.3151653620981403E-9
4.6E-5                    2.6012821346155294E-9    5.957910049497681E-9     1.9709677032082328E-8    2.6585854986855638E-8    1.829122268782466E-8     6.6997584487635606E-9    2.9906543984197095E-9    2.392737245633999E-9     1.465976138876177E-10    -2.574522991199275E-8    -2.610551352755916E-9
4.65E-5                   3.1957486195777366E-9    7.342989724969972E-9     2.1738674928937452E-8    2.811105021388207E-8     2.0236151827213195E-8    7.70361784382025E-9      3.3010949391259914E-9    3.061409604783636E-9     7.5452333001049E-10      -2.7365747383387994E-8   -2.838158665567581E-9
4.7E-5                    3.763825541579938E-9     8.687236229406649E-9     2.3307731620290598E-8    2.8882512023954086E-8    2.1779337280307215E-8    8.585382807478595E-9     3.522344310835076E-9     3.72741353369964E-9      1.443450224746339E-9     -2.8269557819200936E-8   -2.982705618563207E-9
4.7499999999999996E-5     4.286394789270069E-9     9.935126536026912E-9     2.4295252413217775E-8    2.8766881640969E-8       2.280858446604725E-8     9.298200705917537E-9     3.6334625257797095E-9    4.364344879086376E-9     2.1999070125168792E-9    -2.8326173269574205E-8   -3.0307896572077846E-9
4.8E-5                    4.73606808136615E-9      1.1026768985676017E-8    2.4586487612704918E-8    2.76471642142847E-8      2.3218799437942927E-8    9.79774052761185E-9      3.615853740635157E-9     4.942283690087356E-9     3.006808204912367E-9     -2.7421096677136225E-8   -2.9714006659703476E-9
4.85E-5                   5.078941075160086E-9     1.1900941694924208E-8    2.4079485711451754E-8    2.543367920574856E-8     2.291694176566249E-8     1.0044498304109975E-8    3.4535355570739153E-9    5.429062902819312E-9     3.84270940230323E-9      -2.5461263580393788E-8   -2.797218165223883E-9