% Model:              Untitled.mph
% Version:            COMSOL 6.0.0.405
% Date:               Jul 16 2025, 19:39
% Dimension:          1
% Nodes:              401
% Expressions:        11
% Description:        Point graph
% Time (s)                Displacement field, Y component Displacement field, Y component Displacement field, Y component Displacement field, Y component Displacement field, Y component Displacement field, Y component Displacement field, Y component Displacement field, Y component Displacement field, Y component Displacement field, Y component Displacement field, Y component
0                         3.834505435311608E-35    1.632185160090346E-33    8.362879513562656E-33    3.861762168038037E-35    3.5963506646095054E-36   2.508153973097539E-35    6.029110049215428E-36    4.036544347969979E-35    -1.2443072970151383E-34  -2.872206408414797E-33   5.88854653074612E-33
5.0E-7                    -1.72242080960025E-26    -1.3154524575708716E-25  -1.610003493667213E-24   7.278342723455639E-26    4.874470069466096E-26    1.205740316068343E-26    -4.927012524617788E-28   9.75041505037631E-27     1.8643527968573695E-26   4.611390727380401E-25    6.101775351952431E-25
1.0E-6                    2.0887681051566882E-25   -1.6143167163849056E-24  1.7772917115067608E-23   -2.4632712517906274E-25  -8.598662839014061E-25   -4.4155360109423576E-26  -1.5718993675444342E-27  -1.155630871421414E-25   -2.1781039404498896E-26  -1.1530997690449878E-24  -1.6704906358384045E-24
1.5E-6                    -1.2717087840876837E-24  8.42241709324812E-24     -1.0689452610127585E-22  1.1417077874553906E-24   4.2744043017820865E-24   -1.0137695777285639E-25  6.378520940297989E-27    6.789706624485574E-25    1.1081114970339086E-25   2.789341241107467E-24    -4.2590799794712014E-23
2.0E-6                    3.63374201046209E-24     2.0726741368231425E-24   5.972830544255156E-23    -2.9348165391636194E-24  -4.3576095911309976E-24  4.1330198904048884E-25   -7.957468992707181E-27   -1.3992605446422092E-24  4.616188967972088E-25    -3.16939491328932E-24    1.9231492084625736E-22
2.4999999999999998E-6     -5.3542005514445554E-24  -1.2323121691002146E-22  1.489773144594284E-21    5.348087910987786E-24    -2.3388671229512222E-23  1.1613884853469745E-24   7.665782484792133E-28    -3.842180900390305E-24   2.8781036773996603E-24   -6.138170569177738E-23   1.9757181528351537E-22
3.0E-6                    6.855320681527867E-24    3.735996222253038E-22    -4.78760014927205E-21    3.505070955236893E-24    6.929174177785194E-23    -3.474934460270535E-24   1.3889585282625382E-25   1.8988983198993697E-23   1.4152149998901223E-23   1.347881006652523E-22    -1.925857282684417E-21
3.5E-6                    5.01504191519208E-23     5.867859042337206E-22    -3.519075548518463E-21   7.10277179003698E-23     7.6035840283813E-23      -6.217012007387121E-24   -1.7627527860526256E-25  -2.4894923380504975E-24  6.517177174922102E-23    -5.990796578824639E-22   -6.907204328306476E-22
4.0E-6                    -2.931627028037387E-22   -2.9967330795676502E-21  3.9476467414389705E-20   3.625355187332815E-22    -5.600392244122663E-22   1.801880996908602E-23    -1.5098802228507485E-24  -1.2440754724544134E-22  2.5097434675044024E-22   -1.5594701308192182E-21  1.0190104218013745E-20
4.5E-6                    1.4884162456543448E-22   6.401495948977536E-21    -7.576583509953762E-21   -2.393048570356257E-22   3.741748474531799E-22    1.0754592000174352E-23   3.0960508017787913E-24   -1.2921186093300048E-22  7.355701949587611E-22    -4.224361472690961E-21   -3.2255854076096383E-21
4.9999999999999996E-6     2.6088297997926654E-21   3.7198858305699643E-20   -2.2303607297989074E-19  -1.6481888920523707E-21  3.69539007087576E-21     -7.504866839523107E-23   1.961649798575368E-23    1.9992891624732372E-22   1.5205678180359923E-21   -2.3546687541307957E-20  -5.2777461665482515E-20
5.5E-6                    -1.726236935695687E-21   3.082096905312868E-20    1.0612665757360274E-19   1.0855770814454854E-20   -5.254025057659663E-21   3.5787899905858205E-22   -3.934266262300166E-24   5.395153149656952E-23    1.4228061410865258E-23   -7.861072238149105E-20   4.9177002765858176E-20
6.0E-6                    -1.0377563514241404E-20  2.0088418032035996E-19   1.2040478999972823E-18   4.471073010659421E-20    -1.500095273759572E-20   1.1071859093374745E-21   -8.790757508087793E-23   -6.741913170857127E-21   -1.8784255566557465E-20  -3.117856236358401E-19   1.5909844505840762E-19
6.5E-6                    2.238692205297899E-20    1.247770828757355E-18    -3.312382178581152E-19   1.588422953030692E-20    5.191554902042388E-20    -2.6409245508929526E-21  6.190877755984E-23       -3.1488275763451775E-20  -1.154184491386904E-19   -1.147906624517022E-18   -8.051139175886505E-19
7.0E-6                    7.244547713279995E-20    3.4661060198030073E-18   -5.4710290658198785E-18  -2.4091278915622674E-20  9.121744331758114E-20    -9.049298934100997E-21   7.313222028686583E-22    -7.763763561291365E-20   -4.922314608075286E-19   -3.249986038064731E-18   -1.6562380558545309E-18
7.499999999999999E-6      9.89848126751998E-21     9.226867788504324E-18    1.353054989964601E-18    6.767667342947119E-19    -2.198327014818099E-19   1.5055212770224046E-20   1.9169608178441882E-21   -2.054035007402657E-19   -1.775722800481943E-18   -8.93238871027407E-18    2.1204746934461053E-18
8.0E-6                    1.3453130669766235E-19   3.250068031563686E-17    2.805939440615524E-17    2.5085423232649974E-18   -1.6726627040782695E-19  8.142982659733106E-20    3.6823891501878805E-21   -8.109305609179801E-19   -5.887569986278061E-18   -2.667323316972955E-17   1.938873627349033E-18
8.5E-6                    1.1995371775835996E-18   1.0416138612131838E-16   1.6617262489499398E-17   3.6957773203141476E-18   1.8035542851208707E-18   4.4628123048219614E-20   1.0226779242151431E-21   -2.9789247813522234E-18  -1.8410716088187505E-17  -7.697280616353507E-17   -2.791799582172414E-17
9.0E-6                    2.8660723496048806E-18   2.838914689092149E-16    -7.086755673022846E-17   7.373776032198391E-18    2.675771763634219E-18    -2.200854689915278E-19   -5.672570323043215E-21   -8.842156255523378E-18   -5.486300274678366E-17   -2.0907962951448853E-16  -6.992437915671873E-17
9.499999999999999E-6      5.662830516945179E-18    7.412382571957309E-16    -1.400107011829505E-17   3.429359800975498E-17    -3.0650570301688557E-18  -1.420625547859118E-19   6.5381427305553E-20      -2.3751383399895486E-17  -1.5906764613772852E-16  -5.587020639697246E-16   -5.594777706276505E-17
9.999999999999999E-6      1.9766042643761583E-17   1.9090109540040056E-15   4.633848677395884E-16    1.0829717118550247E-16   9.263468120412236E-20    1.3850193996913925E-18   3.5382664154387804E-19   -6.516086116531162E-17   -4.538466448690263E-16   -1.4548372741862394E-15  -1.0428058820034037E-16
1.05E-5                   6.445775768848591E-17    4.665203592639458E-15    9.243340531770511E-16    2.3707009913939925E-16   4.494942439475883E-17    3.810531839937125E-18    6.427260051859296E-19    -1.8270509803391828E-16  -1.2603667764360954E-15  -3.589625129591413E-15   -6.75127857847408E-16
1.1E-5                    1.555793489034239E-16    1.0808579902737284E-14   6.770998509997317E-16    5.262333400750515E-16    9.948944498066199E-17    4.4161616912311354E-18   4.212472671407613E-19    -4.900054058419323E-16   -3.354897752471592E-15   -8.500370840965633E-15   -2.0508782068706115E-15
1.15E-5                   3.4994948811927996E-16   2.4266574255056678E-14   1.4385016525227585E-15   1.4220589039657596E-15   7.491108720184912E-17    5.696455081003934E-18    1.221300395755312E-18    -1.2304530447086888E-15  -8.506324235512999E-15   -1.983318540094121E-14   -4.018806973998347E-15
1.2E-5                    8.935498496552997E-16    5.2774770476921106E-14   7.752746905288532E-15    3.7705627168428325E-15   1.3647663443637263E-16   2.5094938871722156E-17   8.846565902627045E-18    -2.9670004339573383E-15  -2.0505720733595446E-14  -4.5326649729665816E-14  -7.897019085988483E-15
1.2499999999999999E-5     2.3350228747620023E-15   1.0965951164281606E-13   2.098259700298824E-14    8.863067487352437E-15    8.662423242476495E-16    8.859364904081894E-17    2.837646714339146E-17    -6.985228449692025E-15   -4.678690939918003E-14   -9.842524882023173E-14   -1.9831890860535248E-14
1.3E-5                    5.524312254462717E-15    2.1722839132151796E-13   3.6600268554812595E-14   1.9723997703209556E-14   2.5445290875514445E-15   2.1481913950958964E-16   5.739456754056262E-17    -1.5858510831752353E-14  -1.0030746326727114E-13  -1.985331111155235E-13   -4.99729202864694E-14
1.35E-5                   1.1990625465256091E-14   4.122158642052601E-13    6.035138047865466E-14    4.393041581052341E-14    4.648696397204081E-15    4.528820008507802E-16    1.069515609396145E-16    -3.4271266877251326E-14  -2.0072459900716307E-13  -3.7044907893832284E-13  -1.0772039622930342E-13
1.4E-5                    2.5486636244993165E-14   7.44218851080735E-13     1.289512443094372E-13    9.534156354843308E-14    8.195599530784717E-15    1.0215849313091117E-15   2.63620967249899E-16     -7.073768397745045E-14   -3.735065266699006E-13   -6.440160322068908E-13   -2.0606078291730554E-13
1.45E-5                   5.451305019501518E-14    1.2527045773656856E-12   2.916237058116234E-13    1.9441009711835989E-13   1.9590930141528277E-14   2.4669917825412858E-15   7.392571079056282E-16    -1.4012262431928154E-13  -6.461720234429706E-13   -1.0523205466863173E-12  -3.8386992209837266E-13
1.4999999999999999E-5     1.1394697271385773E-13   1.933712631689873E-12    5.587053367380867E-13    3.756894477605779E-13    4.90766241109032E-14     5.753131074720705E-15    1.861207141599424E-15    -2.644461069938956E-13   -1.0428286338975902E-12  -1.624472552520458E-12   -7.252153027462002E-13
1.55E-5                   2.2393309457686507E-13   2.7562322390320265E-12   9.134673100626655E-13    7.082408158165707E-13    1.0336520738492577E-13   1.2564860108870081E-14   4.136730664427789E-15    -4.705061485869464E-13   -1.582044284714436E-12   -2.381107688368275E-12   -1.3396888263060227E-12
1.6E-5                    4.0925885449948066E-13   3.788794167214711E-12    1.4273666417960266E-12   1.310077418982399E-12    1.8869124407266672E-13   2.6393771487088484E-14   8.696388547338508E-15    -7.89667089443991E-13    -2.290778444753121E-12   -3.375895416937439E-12   -2.3201370240644722E-12
1.6499999999999998E-5     7.094996360959176E-13    5.390522072046029E-12    2.305799066925228E-12    2.3367866095751982E-12   3.373703614997569E-13    5.452502107784066E-14    1.8299584440872834E-14   -1.2666137393471494E-12  -3.256434253050944E-12   -4.834464762947176E-12   -3.785171967172671E-12
1.7E-5                    1.2015337173970703E-12   8.281341679512864E-12    3.696296903156164E-12    3.991337014936395E-12    6.34419457040196E-13     1.1041563315663793E-13   3.8781201235053765E-14   -1.9769821686443957E-12  -4.7264406956427686E-12  -7.319631010375539E-12   -6.0862119296568266E-12
1.75E-5                   2.0064850934128274E-12   1.3298186785670399E-11   5.531925044279637E-12    6.63748081188928E-12     1.2010806749327402E-12   2.1639906074669626E-13   8.06599190151826E-14     -3.0634884490712545E-12  -7.193646358188549E-12   -1.1639008225913595E-11  -9.985110132956246E-12
1.8E-5                    3.260044540577771E-12    2.08293871898576E-11     7.931094439922401E-12    1.0928974551473427E-11   2.1498129099991836E-12   4.079264575868457E-13    1.6090572975700117E-13   -4.818087477366972E-12   -1.1305995309927855E-11  -1.825492700031423E-11   -1.6346678991585996E-11
1.85E-5                   5.12091784868631E-12     3.0201861027231437E-11   1.1931977120063182E-11   1.7619509761281922E-11   3.6085554032640295E-12   7.420864576995213E-13    3.0656102500293925E-13   -7.772675992291746E-12   -1.746686298310395E-11   -2.6519861039069947E-11  -2.5232082805937897E-11
1.8999999999999998E-5     7.94138551221996E-12     3.9527083458372256E-11   1.927066275619742E-11    2.688316300103646E-11    5.861162384565095E-12    1.3146113057521618E-12   5.647122272165587E-13    -1.2601920575406393E-11  -2.5275454920489276E-11  -3.462511494675685E-11   -3.518323586900131E-11
1.95E-5                   1.2492530458626121E-11   4.6422578972045504E-11   3.0417112299479E-11      3.764151698975785E-11    9.427191709776809E-12    2.2849484713612408E-12   1.020458464645139E-12    -1.9644906104752432E-11  -3.329265751584687E-11   -4.070584527961802E-11   -4.370107039544427E-11
1.9999999999999998E-5     1.9790096897735365E-11   4.9290414666773785E-11   4.244071785323881E-11    4.770099154579918E-11    1.4782072237668965E-11   3.8915938990792105E-12   1.8114020066450921E-12   -2.8252764863513922E-11  -3.952649863129137E-11   -4.4137608929108197E-11  -4.862286077191549E-11
2.05E-5                   3.024457017846896E-11    4.7898530269120765E-11   4.9670692365484965E-11   5.471637343121962E-11    2.1734985441429662E-11   6.4251617240113134E-12   3.123432488690152E-12    -3.6624563573467926E-11  -4.2378502955194355E-11  -4.5406297426355E-11     -4.887478856387723E-11
2.1E-5                    4.270542322744948E-11    4.238647629621341E-11    4.784484365620521E-11    5.6990235772652216E-11   2.9052533497897958E-11   1.0139553852689669E-11   5.179338685834558E-12    -4.2575476428775425E-11  -4.122206943390558E-11   -4.437142651203789E-11   -4.400271424883148E-11
2.1499999999999997E-5     5.445394912421207E-11    3.1895425833248625E-11   3.820910474517676E-11    5.344200065047765E-11    3.4964950401115675E-11   1.510309564223787E-11    8.238578213751891E-12    -4.473927826413079E-11   -3.607867441176113E-11   -3.889566593905852E-11   -3.3735965061954485E-11
2.2E-5                    6.23663157839882E-11     1.5082329606492397E-11   2.6890663854430726E-11   4.3360414292488434E-11   3.830640293602503E-11    2.0990563448616964E-11   1.2537875841008234E-11   -4.3073606547672206E-11  -2.6832241335180958E-11  -2.5829115544397378E-11  -1.8457550326711153E-11
2.2499999999999998E-5     6.415657538296625E-11    -7.708898677018894E-12   1.910734821713129E-11    2.6695059724046735E-11   3.9096176795142313E-11   2.6860266753804383E-11   1.8033203857795345E-11   -3.8129443173291356E-11  -1.2965983999673711E-11  -3.7331057135663105E-12  6.313023735052166E-13
2.3E-5                    5.858979246421774E-11    -3.3989181527188644E-11  1.3363973928088782E-11   4.3063284240955315E-12   3.7743378986503724E-11   3.11173365465079E-11     2.4018972430812536E-11   -2.9852391128076054E-11  5.777441946633887E-12    2.5499696960880825E-11   2.2750272186961676E-11
2.35E-5                   4.489365007900748E-11    -6.213791788449443E-11   1.4702024363728173E-12   -2.2841147698495047E-11  3.3651860773774694E-11   3.1937267662937505E-11   2.907839867279539E-11    -1.7223050045424978E-11  2.8529283120646545E-11   5.7999254847229496E-11   4.871274055090471E-11
2.4E-5                    2.2433034354060735E-11   -9.444658900114055E-11   -2.515638133917228E-11   -5.493571119603809E-11   2.4883996264876618E-11   2.810391088657194E-11    3.16966387045278E-11     8.827658206529025E-13    5.3376835235177946E-11   9.09843766460754E-11     8.007056753660342E-11
2.45E-5                   -8.95679133574747E-12    -1.3561321421932047E-10  -6.833904700082027E-11   -9.325411199987062E-11   9.400144977840226E-12    1.970335749778795E-11    3.1061341085586497E-11   2.466321432978182E-11    7.873819979348884E-11    1.2462687670075427E-10   1.1723614138776745E-10
2.4999999999999998E-5     -4.8556311585614685E-11  -1.8755607403410323E-10  -1.2115333878112557E-10  -1.3856770788278565E-10  -1.3413598275022076E-11  8.09415140955414E-12     2.7154626172185664E-11   5.3521627998516545E-11   1.0496474446728335E-10   1.6130011976941073E-10   1.592705681927835E-10
2.55E-5                   -9.48033159813341E-11    -2.462023324166729E-10   -1.724771908574968E-10   -1.899944918459454E-10   -4.2363801722611134E-11  -4.805683769673891E-12   2.0118681029507932E-11   8.732641005496096E-11    1.3453437007916318E-10   2.0334912623335313E-10   2.055035923100848E-10
2.6E-5                    -1.4567284072443212E-10  -3.037409878032371E-10   -2.1444211791841896E-10  -2.455982813545828E-10   -7.520042706470671E-11   -1.7398605858096215E-11  9.933950695608132E-12    1.272110021636431E-10    1.703354039327226E-10    2.5130369132575364E-10   2.5634435155392615E-10
2.65E-5                   -1.990517700149929E-10   -3.540907009513542E-10   -2.4748810922266953E-10  -3.0345709441184965E-10  -1.0966669234798072E-10  -2.914334307945686E-11   -3.1274556905209404E-12  1.7457982086372261E-10   2.134291283730676E-10    3.0337233792989236E-10   3.1180060495127715E-10
2.7E-5                    -2.530435975509149E-10   -3.967999131956237E-10   -2.795913844726167E-10   -3.6155582267777196E-10  -1.4456543815363948E-10  -4.112463475198475E-11   -1.8323855810566777E-11  2.290399987029147E-10    2.6221120238000804E-10   3.560064941465379E-10    3.694062641147358E-10
2.7499999999999998E-5     -3.0635659629836765E-10  -4.3642683892317354E-10  -3.200410632592215E-10   -4.1720510840240025E-10  -1.8070342037788373E-10  -5.617126468711971E-11   -3.5433089553009195E-11  2.8739069121041473E-10   3.1335872122026354E-10   4.051434046917274E-10    4.2400801269645545E-10
2.8E-5                    -3.5875301917208277E-10  -4.77681335581296E-10    -3.7190095801027077E-10  -4.675993754091352E-10   -2.206068590512551E-10   -7.798172103608882E-11   -5.580008214123573E-11   3.4471046200063105E-10   3.6317784343109677E-10   4.4755643166027233E-10   4.696397328440043E-10
2.8499999999999998E-5     -4.110189804236117E-10   -5.194673611928747E-10   -4.285486859349052E-10   -5.108105287202447E-10   -2.660697143968218E-10   -1.0930569003437083E-10  -8.161714379134809E-11   3.9637792436971395E-10   4.080540288555524E-10    4.81271144045838E-10     5.015407104808533E-10
2.9E-5                    -4.636563555830363E-10   -5.524342745130211E-10   -4.768168720328797E-10   -5.449786414685977E-10   -3.151275544159339E-10   -1.5018985287577806E-10  -1.137258933895143E-10   4.393002308994424E-10    4.4426452782909756E-10   5.044652501798645E-10    5.164787027303868E-10
2.95E-5                   -5.14431766612832E-10    -5.627902078916297E-10   -5.039605287372604E-10   -5.659158222430616E-10   -3.617911582599119E-10   -1.9742801386969743E-10  -1.503512760030716E-10   4.718993022315386E-10    4.682024531784795E-10    5.139925398143922E-10    5.114212781687396E-10
2.9999999999999997E-5     -5.5666085643998E-10     -5.399218967538338E-10   -5.027017892068973E-10   -5.662594851796776E-10   -3.994681761408965E-10   -2.455323033585897E-10   -1.8826366703784422E-10  4.933157885715933E-10    4.771172378580801E-10    5.054133623688599E-10    4.821782518779768E-10
3.05E-5                   -5.803343700813783E-10   -4.812350667728346E-10   -4.71144105476073E-10    -5.377898189200041E-10   -4.2480318363291467E-10  -2.8869814063237196E-10  -2.2513029545584323E-10  5.020906616820997E-10    4.69332194800555E-10     4.744269110864247E-10    4.2342527594394325E-10
3.1E-5                    -5.756849896162896E-10   -3.8966446837824084E-10  -4.096027169301973E-10   -4.745063111805341E-10   -4.3814043877192547E-10  -3.228224809887636E-10   -2.606563788260611E-10   4.947352403974258E-10    4.4330739424018034E-10   4.1738183044557345E-10   3.3003394436583557E-10
3.15E-5                   -5.362123740288755E-10   -2.6656482339855553E-10  -3.1827740424809823E-10  -3.7340378583919746E-10  -4.4057929759684705E-10  -3.464350572942228E-10   -2.9546052005234013E-10  4.6533979906604904E-10   3.9636602397920616E-10   3.2989786438662156E-10   1.9854561214275695E-10
3.2E-5                    -4.589918083044294E-10   -1.075972095760901E-10   -1.9679626966859798E-10  -2.330367418914711E-10   -4.3068125147603653E-10  -3.5970529931898095E-10  -3.286781408492784E-10   4.0693207527987325E-10   3.244188561794183E-10    2.0609307794268273E-10   2.7725206128836087E-11
3.25E-5                   -3.432590201318381E-10   9.421908610599489E-11    -4.4055457276769814E-11  -5.1904861718720004E-11  -4.032229945914983E-10   -3.62027047513811E-10    -3.563354961464143E-10   3.135741832114744E-10    2.229286258582068E-10    4.0882362727603594E-11   -1.8198473609125234E-10
3.2999999999999996E-5     -1.8944402376670285E-10  3.4221537529551964E-10   1.4203468776771633E-10   1.7235723404025597E-10   -3.502552270474603E-10   -3.5019406659947425E-10  -3.7203453520078837E-10  1.8164114538251692E-10   8.808215085840492E-11    -1.6654685227127954E-10  -4.292604093433741E-10
3.35E-5                   1.1546764496422523E-12   6.334976730318802E-10    3.635382198475964E-10    4.4274994898444413E-10   -2.6373093221429036E-10  -3.1894194686916624E-10  -3.6965110624439073E-10  1.0148949024185798E-11   -8.278556307201015E-11   -4.1240285550354604E-10  -7.117502519151928E-10
3.4E-5                    2.274298801190622E-10    9.616644066951533E-10    6.202389780469413E-10    7.607905340805711E-10    -1.384262570945202E-10   -2.6338113170770444E-10  -3.458894322631286E-10   -1.990796464315167E-10   -2.9128364443516096E-10  -6.917761688553427E-10   -1.0248314127964838E-9
3.45E-5                   4.902460770617482E-10    1.3200612986818903E-9    9.083088465185822E-10    1.1228747026601334E-9    2.681142470510622E-11    -1.8092292947483151E-10  -3.005374658480686E-10   -4.4158697075988354E-10  -5.37575164689601E-10    -1.0015718764988265E-9   -1.3605563418137487E-9
3.5E-5                    7.928842756435277E-10    1.7014373609099242E-9    1.2209704027386785E-9    1.5184814588226139E-9    2.3051171475417012E-10   -7.092378106851667E-11   -2.3429722320717546E-10  -7.116838763548856E-10   -8.191002569696416E-10   -1.3390334290128752E-9   -1.707867024104708E-9
3.5499999999999996E-5     1.1386816482443604E-9    2.0953975017572836E-9    1.549384043483673E-9     1.9329137388756397E-9    4.709504800403458E-10    6.722269082929568E-11    -1.4604680239847209E-10  -1.0047144266827657E-9   -1.129295857542438E-9    -1.6974299672357157E-9   -2.053476856055698E-9
3.6E-5                    1.5269772105154638E-9    2.487462236854562E-9     1.881987521858068E-9     2.3516406086174193E-9    7.465154860492864E-10    2.351545752863667E-10    -3.1658075264444986E-11  -1.3182306061333214E-9   -1.457668965045595E-9    -2.063712364055093E-9    -2.3822497162697832E-9
3.65E-5                   1.949817509675016E-9     2.8603591166107305E-9    2.20348899440059E-9      2.7604347510855166E-9    1.0537366261346222E-9    4.3427413237674936E-10   1.1461496963786269E-10   -1.6504371370626734E-9   -1.7915243091362872E-9   -2.420287073834972E-9    -2.677141525667659E-9
3.7E-5                    2.390793140276353E-9     3.1948603407897694E-9    2.4958975869878994E-9    3.140872496231692E-9     1.3856403489018709E-9    6.63113417008769E-10     2.967797864490965E-10    -1.9961815626806537E-9   -2.118017822755347E-9    -2.74852155998535E-9     -2.919473810694235E-9
3.75E-5                   2.8257373143475306E-9    3.4687819893280668E-9    2.741048725571026E-9     3.4674005647641913E-9    1.7323689512452395E-9    9.157845125032597E-10    5.139574571716662E-10    -2.3427789079508908E-9   -2.424809289669507E-9    -3.0306332496577727E-9   -3.08944305540724E-9
3.7999999999999995E-5     3.22465210450843E-9      3.656250929576387E-9     2.9212800185506594E-9    3.7102140149121554E-9    2.0827990975281192E-9    1.1829204557666826E-9    7.598914931983385E-10    -2.6689340453092046E-9   -2.6990195318649343E-9   -3.249215375639853E-9    -3.1663277033382725E-9
3.85E-5                   3.554694029317327E-9     3.729693553897248E-9     3.017098160214954E-9     3.8405143280697026E-9    2.4246387735289214E-9    1.4540282718993758E-9    1.0254690287102587E-9    -2.9486444707895353E-9   -2.925831151819894E-9    -3.3859061135429202E-9   -3.1288099036928755E-9
3.9E-5                    3.78387278531828E-9      3.663726607649581E-9     3.0054114769867802E-9    3.832642403389442E-9     2.742495607381534E-9     1.7188939492841904E-9    1.301827505138193E-9     -3.1579109166733954E-9   -3.0880049234860725E-9   -3.4206882116797385E-9   -2.9562681291279998E-9
3.95E-5                   3.88419039136347E-9      3.4378843684026116E-9    2.862206993326231E-9     3.6631503867257813E-9    3.015919890976236E-9     1.9669251049677788E-9    1.5812867060813233E-9    -3.278679729623761E-9    -3.1663372362250374E-9   -3.3323876723930952E-9   -2.6308108753313448E-9
3.9999999999999996E-5     3.832750938863383E-9     3.0367676114035335E-9    2.5683900110058383E-9    3.3107687022838404E-9    3.219749671714977E-9     2.1855780464206294E-9    1.855683330011199E-9     -3.296372854108061E-9    -3.140679440659131E-9    -3.100442734617402E-9    -2.1390097756358607E-9
4.0499999999999995E-5     3.6107534393633755E-9    2.448995139402599E-9     2.113711090533976E-9     2.7584726747753468E-9    3.327176706876853E-9     2.359693989620979E-9     2.1137864837366648E-9    -3.193903765574999E-9    -2.9916894852712273E-9   -2.7075417003962564E-9   -1.472920535678093E-9
4.1E-5                    3.2019436093602874E-9    1.6665311306350064E-9    1.495980448957455E-9     1.9953587006475104E-9    3.3135995188200105E-9    2.4720933257568944E-9    2.339708142401083E-9     -2.9491084536029534E-9   -2.703191992766911E-9    -2.141972768136764E-9    -6.307143608425788E-10
4.15E-5                   2.5921695974614195E-9    6.845303377350683E-10    7.175820353139078E-10    1.0170964076234636E-9    3.1586351964655833E-9    2.5043073122914915E-9    2.5135604467659417E-9    -2.5390129377440487E-9   -2.2638018236857665E-9   -1.3985179011558375E-9   3.8287131217546E-10
4.2E-5                    1.7703172969084452E-9    -4.978610164528968E-10   -2.1689850047850812E-10  -1.738334563387401E-10   2.845467905789515E-9     2.4369335263853096E-9    2.6145153067345583E-9    -1.9472706289812863E-9   -1.6665917077293759E-9   -4.781041239175479E-10   1.556067511995789E-9
4.2499999999999996E-5     7.300001356247675E-10    -1.874034825792164E-9    -1.299862444228874E-9    -1.5672225659115204E-9   2.359345723877264E-9     2.2508070484176815E-9    2.6244246500421678E-9    -1.1685350140235052E-9   -9.077669385661396E-10   6.122875172324565E-10    2.8689882850008153E-9
4.2999999999999995E-5     -5.28228733507357E-10    -3.4237661093605454E-9   -2.517242496906999E-9    -3.1438879725084147E-9   1.6876886709192564E-9    1.9300589156527E-9       2.528902813201269E-9     -2.0758574592547707E-10  1.3119434220828607E-11   1.8586322237007136E-9    4.291736202880104E-9
4.35E-5                   -1.9939716656521283E-9   -5.108574803710972E-9    -3.844794595291522E-9    -4.873919922187055E-9    8.22395508478384E-10     1.465601250710077E-9     2.3149458271773963E-9    9.238957793610693E-10    1.0903412187014958E-9    3.2387456223150777E-9    5.782844098430917E-9
4.4E-5                    -3.643938193910608E-9    -6.8735064718638865E-9   -5.246837678683927E-9    -6.713970465065147E-9    -2.3710233555992776E-10  8.559225222484976E-10    1.9682709895285082E-9    2.2091760662568287E-9    2.3085769783222913E-9    4.722233668684363E-9     7.289545458159896E-9
4.45E-5                   -5.440227150164346E-9    -8.654707000319682E-9    -6.678066061974767E-9    -8.60517738554709E-9     -1.4817029724323394E-9   1.0424917686857443E-10   1.474327588282351E-9     3.6257541989015E-9       3.6419805520324817E-9    6.271171153760378E-9     8.749975538637225E-9
4.4999999999999996E-5     -7.33091755908076E-9     -1.0386427372964545E-8   -8.085885834220145E-9    -1.0474631024584616E-8   -2.892009141871337E-9    -7.84818652212357E-10    8.228614211053209E-10    5.143016445960658E-9     5.0565273109941494E-9    7.84044575605904E-9      1.0096140604835961E-8
4.5499999999999995E-5     -9.252159761579158E-9    -1.200240327936777E-8    -9.410325873567436E-9    -1.2240498551453404E-8   -4.4388709302050024E-9   -1.805057087046942E-9    1.215689604139251E-11    6.719779109086334E-9     6.513279879328216E-9     9.37777969040309E-9      1.1256849245743284E-8
4.6E-5                    -1.1129885799113844E-8   -1.343330945300241E-8    -1.0582502355618605E-8   -1.3817112174224556E-8   -6.084275875667908E-9    -2.9441061641810484E-9   -9.498535906372346E-10   8.303391580188474E-9     7.969733473098845E-9     1.0824281742651266E-8    1.2160704376010635E-8
4.65E-5                   -1.2880405647931095E-8   -1.4605705867042106E-8   -1.152630807014559E-8    -1.5117109115516028E-8   -7.781683962070268E-9    -4.178193780552923E-9    -2.046830438040429E-9    9.831668795981555E-9     9.378876121706747E-9     1.211578223297578E-8     1.273918870930515E-8
4.7E-5                    -1.44114873717619E-8     -1.5444604956646108E-8   -1.2165676732603533E-8   -1.6052131552443387E-8   -9.475524821682274E-9    -5.4701046020592825E-9   -3.2555411092981673E-9   1.1237081010769719E-8    1.0687938712138938E-8    1.3184677303458325E-8    1.2929274934593268E-8
4.7499999999999996E-5     -1.5626230068033188E-8   -1.587688673412064E-8    -1.2433148883781212E-8   -1.6535228166631043E-8   -1.1100675186292517E-8   -6.771401800505258E-9    -4.546865421290217E-9    1.2450698657905287E-8    1.1838616212835426E-8    1.3962524451099155E-8    1.2675140944901987E-8
4.8E-5                    -1.6429738755629266E-8   -1.5832926307641006E-8   -1.2273113512519E-8      -1.6485142800235522E-8   -1.2583152145944193E-8   -8.026775254322766E-9    -5.886259809579889E-9    1.3403935038836594E-8    1.276890623164736E-8     1.4383758553889279E-8    1.1929528169969049E-8
4.85E-5                   -1.6735485804102545E-8   -1.5247861914645163E-8   -1.1639088522001392E-8   -1.5830492609901377E-8   -1.3842398646323174E-8   -9.17756613413433E-9     -7.23312808255122E-9     1.4028839524756546E-8    1.341592888944608E-8     1.438979253375814E-8     1.065602412336021E-8