% Model:              analysis.mph
% Version:            COMSOL 6.0.0.405
% Date:               Jul 12 2023, 15:19
% Dimension:          1
% Nodes:              10001
% Expressions:        11
% Description:        Point graph
% Time (s)                Displacement field, Y component Displacement field, Y component Displacement field, Y component Displacement field, Y component Displacement field, Y component Displacement field, Y component Displacement field, Y component Displacement field, Y component Displacement field, Y component Displacement field, Y component Displacement field, Y component
0                         0                        0                        0                        0                        0                        0                        0                        0                        0                        0                        0
1.0E-6                    6.461209997867177E-46    3.079004887043395E-45    2.4790147180941964E-44   7.042531767313449E-44    2.334046774175309E-44    9.709502066288834E-45    -8.416589110274069E-45   7.09389794553937E-46     2.7621222139945667E-46   7.798080043223862E-48    -7.450529949726176E-47
2.0E-6                    -5.427924420602712E-45   -3.2679115742615234E-44  -2.1366144218807416E-43  -4.209236211237336E-43   -2.0705604372272503E-43  -4.727316700159068E-44   2.4685398734227936E-43   4.1687185034830194E-44   1.1423812307606441E-45   2.998312119880451E-46    5.748188056429429E-46
3.0E-6                    -4.872611543991127E-44   -4.753374844139097E-44   -1.0397145650708639E-43  -3.5311142007821274E-42  1.0683492961107153E-43   -4.365295463479372E-43   -2.6062332656736432E-42  -8.62710664302784E-43    -7.40707643360399E-44    -1.302916334091141E-44   -2.6340669683160372E-45
4.0E-6                    5.777986804796602E-43    1.608462108025504E-42    6.628735432548909E-42    3.8270589264941684E-41   4.595385612735718E-42    3.354229612531014E-42    9.9819054614564E-42      5.045729539117343E-42    5.273524235766925E-43    1.005028989716557E-43    7.799948114878829E-45
4.9999999999999996E-6     -2.6210228282158082E-42  -8.687151912215418E-42   -3.44894149519803E-41    -1.4569693909322783E-40  -2.543725288736206E-41   -9.284512191059058E-42   -8.922228661145226E-42   -1.228854562181797E-41   -1.649205761542234E-42   -4.272498261745323E-43   -8.964344300151087E-45
6.0E-6                    4.705194139659093E-42    1.8386284923014312E-41   8.112591157689331E-41    1.809761208107544E-40    6.004573942826608E-41    1.5181652670035624E-41   -4.5352124252917483E-41  -5.0418415931485624E-42  8.943180845703146E-43    8.367142743044501E-43    -3.131718248958509E-44
7.0E-6                    6.00454971044875E-42     1.5539437810193057E-41   -2.7935355505068474E-41  5.3198571873411104E-40   -1.63157379413283E-41    -3.0163582727086065E-41  1.1053398940349427E-40   1.0105411796787019E-40   1.0169213557512765E-41   1.0031021916068025E-42   9.48685278762803E-44
8.0E-6                    -3.6496635384715266E-41  -1.7074999101084082E-40  -3.959124875499762E-40   -2.226169099828365E-39   -2.933570953673428E-40   2.7530285958400487E-41   1.0745747513248274E-40   -1.4824234394074394E-40  -2.464604911190816E-41   -8.410831533645106E-42   6.757507580925264E-44
9.0E-6                    8.94382559403E-42        2.7601085917587884E-40   1.1308109281426752E-39   1.303149719376715E-39    6.58397597490539E-40     2.3194690689500563E-40   -5.166957277058068E-40   -3.600736452496495E-40   -2.4880176362059537E-41  8.335585285538203E-42    -2.6870561488543956E-43
9.999999999999999E-6      1.6358204614422926E-40   4.286554426779871E-40    -6.8402348322471745E-40  7.592017809756765E-39    2.284438706052994E-40    -7.964023678304831E-40   -4.86669953716315E-40    1.0526767313163808E-39   1.4435640973814746E-40   3.4111462604894E-41      -5.9139327724699695E-43
1.1E-5                    -9.835699922098168E-41   -2.1808110670794262E-39  -3.4636639408387277E-39  -1.3312919786410257E-38  -2.5847079845329342E-39  3.54134325384702E-40     2.7814849387161516E-39   1.0800273604669633E-39   4.927121938130716E-41    -6.831250328665774E-41   5.246788236754077E-43
1.2E-5                    -7.625943970988532E-40   1.2023185450111418E-39   8.883818499857167E-39    -1.4789708840284215E-38  6.106124927624618E-40    2.752566474888174E-39    2.4215122370712228E-39   -5.205598579852063E-39   -6.6834134668156085E-40  -1.1215316383979795E-40  3.778886518367567E-42
1.3E-5                    8.895332475730984E-40    9.360663564242293E-39    -1.365990787705765E-39   5.240376138877275E-38    7.993432231042633E-39    -5.819055743069324E-39   -1.5195599065624765E-38  -3.4487868341742815E-39  -1.5443959188821337E-40  3.3034763484816955E-40   -3.5395163697230137E-44
1.4E-5                    2.5302876315667637E-39   -1.7339064559645563E-38  -2.878151934117428E-38   2.7891057064846806E-38   4.610935104958654E-40    -5.118821939941325E-39   -1.1699699864444048E-38  2.278142217995159E-38    2.8263960501988268E-39   3.682696886212953E-40    -1.590424099937694E-41
1.4999999999999999E-5     -5.02239216208097E-39    -2.867262858733774E-38   4.3703451417399907E-38   -1.729467752353734E-37   -2.9488219374642544E-38  3.382933258425091E-38    7.010617023905953E-38    1.2148579280278746E-38   6.81623119054472E-40     -1.3370820939047403E-39  -7.841945638085252E-42
1.6E-5                    -4.832888162305055E-39   1.033885174108889E-37    3.506925503917211E-38    -1.1317739753574342E-37  -1.565458296163447E-38   2.2964299470732307E-38   6.892449565004116E-38    -8.896038802669992E-38   -1.063631005589891E-38   -1.204616682173032E-39   5.214215746691473E-41
1.7E-5                    1.7385578054580923E-38   6.848977561651635E-38    -1.893760755655478E-37   5.945170574454378E-37    1.0447625410668266E-37   -1.9419629179377037E-37  -2.6016768708847983E-37  -5.104029951764554E-38   -3.144740134742077E-39   4.752366940611173E-39    4.789317857959115E-41
1.8E-5                    6.268215857077266E-39    -4.567029544569885E-37   1.127508313682271E-37    6.3752713962663284E-37   1.1100132255605548E-37   -1.9066666671209074E-37  -4.036469701038048E-37   3.018706819928356E-37    3.54771432275302E-38     3.833914285655399E-39    -1.4178548703592795E-40
1.8999999999999998E-5     -3.816133856284491E-38   -1.5076252377871568E-37  5.61608492003453E-37     -2.019103610664388E-36   -2.9517781488508336E-37  1.0324840920021225E-36   7.021976083249145E-37    2.400107447623767E-37    1.373442175379187E-38    -1.4883674024436242E-38  -1.7184633362830347E-40
1.9999999999999998E-5     -3.466101529566964E-38   1.6814766872568063E-36   -8.963075430131406E-37   -3.1339014449516337E-36  -6.795008922111829E-37   1.1738431289242836E-36   1.9044746808360733E-36   -8.503806974200754E-37   -1.0822996709932355E-37  -1.1835844905917728E-38  3.1883125733794987E-40
2.1E-5                    2.630959419226298E-38    4.590502946296997E-37    -1.449758185678937E-36   5.919120880496228E-36    6.0619610777771526E-37   -4.553286941672071E-36   -8.540498228173918E-37   -1.0357210248218198E-36  -5.635059418829245E-38   4.125582754233545E-38    3.6165446740971294E-40
2.2E-5                    2.782597465662993E-37    -5.401176730602686E-36   3.67940415325431E-36     1.271504590531124E-35    3.538356766816003E-36    -5.5663162926141254E-36  -6.66411883490178E-36    1.8083123236137475E-36   3.1359860667271926E-37   3.4954495633560546E-38   -6.434451429023014E-40
2.3E-5                    2.9161197849421156E-37   -2.1246690256725533E-36  3.788606639532916E-36    -1.3308938624722158E-35  -3.159634487340013E-37   1.659972697599967E-35    -3.304343145350279E-36   3.605433701957079E-36    2.2760286583384977E-37   -1.0192404224052459E-37  7.738361042253143E-41
2.4E-5                    -1.3683525926633763E-36  1.534739776908083E-35    -1.1801053938089843E-35  -4.262272173501082E-35   -1.4950019290334568E-35  2.2324139294226806E-35   1.5623602538862108E-35   -2.1453695722809447E-36  -8.693471046808497E-37   -9.592508070372648E-38   1.993680318511783E-39
2.4999999999999998E-5     -2.21725258357896E-36    1.0191157807964051E-35   -1.0749773475433407E-35  1.8147701969280076E-35   -5.8543922400231165E-36  -5.127536397384741E-35   2.4349085163387577E-35   -9.455393856687215E-36   -9.18913619214524E-37    2.2748815969970527E-37   -4.058585761546567E-39
2.6E-5                    4.359938783255635E-36    -3.795609351206789E-35   3.2350344144008735E-35   1.1835321638861343E-34   5.01131983021188E-35     -8.08814019941815E-35    -1.4421841552178705E-35  -2.1433187003752178E-36  2.19476737444236E-36     2.3841821578336403E-37   -1.0711672407803501E-38
2.7E-5                    1.027154454536581E-35    -4.20894246687103E-35    3.218327227821915E-35    9.98252631998988E-36     4.170844112382963E-35    1.3384457447860263E-34   -7.810664647861722E-35   1.7019440590396795E-35   3.5216810384226246E-36   -4.759370374844444E-37   1.601880523645896E-38
2.8E-5                    -8.120156220530841E-36   7.666551590773793E-35    -7.805701454338839E-35   -2.717182946558533E-34   -1.2787289152061914E-34  2.723963273906372E-34    -5.864189235804096E-35   1.7683493953638794E-35   -4.46523185535771E-36    -5.405944364105983E-37   5.156687206432734E-38
2.9E-5                    -3.51734864547541E-35    1.4447801775973703E-34   -9.616095611475931E-35   -1.5688902724833353E-34  -1.7793549400638605E-34  -2.712845146245633E-34   1.2513629058368556E-34   -1.4363572978584588E-35  -1.1956373264278792E-35  1.003499562446828E-36    -2.341488807768941E-38
2.9999999999999997E-5     -1.2004316525389297E-36  -1.0229785908316292E-34  1.6463110740306923E-34   5.023365715871687E-34    2.1955235338401864E-34   -8.33372874130547E-34    3.1651520228171917E-34   -4.2970218405444406E-35  4.880336674967662E-36    1.219261333354816E-36    -1.7812027075121778E-37
3.1E-5                    8.964849466012397E-35    -4.069870045132949E-34   2.757698044585869E-34    5.974970607911166E-34    5.365611705854839E-34    2.8100014185301815E-34   8.46520360373577E-35     -2.256893281818536E-35   3.3946324582478496E-35   -2.239646177723128E-36   -6.437677501379146E-38
3.2E-5                    7.236491487301278E-35    -3.0196838845961224E-35  -2.8174855038144606E-34  -6.595851329895102E-34   -1.1602656246457683E-34  2.169809064683468E-33    -7.2095521078116406E-34  4.2386420141183796E-35   1.0863158459113804E-35   -3.1803470958736014E-36  4.157340148950986E-37
3.2999999999999996E-5     -1.533784885132205E-34   9.151574725622255E-34    -7.291984084286726E-34   -1.5511935588926942E-33  -1.1327828761457912E-33  6.812966614785248E-34    -1.1177818660953638E-33  1.0014173679246608E-34   -7.503390203601962E-35   4.822705340834706E-36    4.855458350895192E-37
3.4E-5                    -3.039917449018069E-34   7.24803191024082E-34     2.809007189864295E-34    2.2075557756941347E-34   -6.7944113700466005E-34  -4.3378803825818484E-33  4.508402537863273E-34    7.259796708726536E-35    -8.361140172909233E-35   9.598692911866143E-36    -5.280116994766699E-37
3.5E-5                    7.464504160701169E-35    -1.5099101551702766E-33  1.6754654009107854E-33   2.9085089521008675E-33   1.4019920082371133E-33   -4.6281192851018365E-33  3.250318792184893E-33    -1.182109506305306E-34   1.0630939834174913E-34   -7.500434967200075E-36   -1.4555910548446657E-36
3.6E-5                    7.72101762747473E-34     -2.7252233102670135E-33  3.6019075671293104E-34   1.7227928331256935E-33   2.6169061064214385E-33   5.162247286125869E-33    2.7428541242765054E-33   -3.7516211229029114E-34  2.7987533362664803E-34   -2.7595103347565395E-35  -2.8539340185377618E-37
3.7E-5                    5.703165504230137E-34    1.1932306306571316E-33   -3.063813969106114E-33   -3.39267605882609E-33    3.4499280327814863E-34   1.3501311508968591E-32   -4.210475117522361E-33   -2.454379044121682E-34   1.273789274924233E-35    -4.1842804378822025E-37  2.3180698297945485E-36
3.7999999999999995E-5     -1.2215188000920264E-33  6.71110229253321E-33     -2.660621496952487E-33   -5.3068197639805824E-33  -4.898466772074246E-33   2.4328196493564358E-33   -1.0924713271070555E-32  6.213992257234823E-34    -5.9485834399025275E-34  6.279584324454457E-35    2.8317735179798877E-36
3.9E-5                    -2.445249217366014E-33   2.7399136918118068E-33   3.7166234021551065E-33   5.167333496354304E-34    -6.651632965952463E-33   -2.29242349176385E-32    -3.601291965329781E-33   1.4170116342133E-33      -5.926254639940705E-34   5.020372054884288E-35    -3.720649985763191E-37
3.9999999999999996E-5     4.581045502701905E-34    -1.156308155086835E-32   7.329903924656726E-33    7.505436685629559E-33    3.788401233028423E-33    -2.8022898134857425E-32  1.870610576273776E-32    3.0290238270342036E-34   6.567702636977414E-34    -9.218030108419418E-35   -4.8401657067579106E-36
4.1E-5                    5.740066660798482E-33    -1.475566685638471E-32   -6.103596353727414E-34   5.8540876909126666E-33   1.9170213619494725E-32   1.1950696329616385E-32   2.9079795787432453E-32   -2.899560039175714E-33   1.86341418884923E-33     -1.8317453495105406E-34  -7.252359579063772E-36
4.2E-5                    4.110377653580285E-33    1.0594809160737688E-32   -1.2280731053633056E-32  -3.153686328815051E-33   8.787419587084638E-33    6.490708258669247E-32    -3.634632663071988E-33   -4.248142826010211E-33   5.931839899233071E-34    1.86557765665974E-35     -3.4346040394871165E-36
4.2999999999999995E-5     -8.275167412427819E-33   3.699959898853084E-32    -9.355508809353448E-33   -8.566529496383411E-33   -3.529642499681912E-32   5.316319626498077E-32    -6.09005673116058E-32    1.0959930564376697E-33   -3.0193470309703055E-33  3.679673724792384E-34    1.2775927781736778E-35
4.4E-5                    -1.5367860858235868E-32  1.174226324052367E-32    1.0221596710518992E-32   -5.2621470865517855E-33  -4.6754754873319715E-32  -5.639811225124232E-32   -6.321140118844691E-32   1.0367520225999282E-32   -4.3060276329417686E-33  3.1196246047852217E-34   3.334489883675775E-35
4.4999999999999996E-5     2.9971539939174615E-33   -5.675615108430664E-32   2.306296803730897E-32    5.818847181388426E-34    3.9348126700116E-32      -1.6545081833960947E-31  4.001316210710999E-32    1.0523562189675555E-32   1.0585185769277088E-33   -3.576251241285044E-34   1.782470930342068E-35
4.6E-5                    3.170854593782899E-32    -7.128357127151156E-32   7.670962243563012E-33    3.054640432139512E-33    1.2675944723484508E-31   -9.908903232737161E-32   1.5817754912734343E-31   -7.933549370811534E-33   8.987825483559968E-33    -8.850105306354819E-34   -6.274048567204689E-35
4.7E-5                    2.178888354779446E-32    3.153285620694947E-32    -2.4684598033755723E-32  4.440925365549373E-33    1.7664717988822808E-32   1.7748149316192893E-31   1.0883695162945404E-31   -3.0510058198401323E-32  7.816338351394514E-33    -2.750980667427683E-34   -1.285773697190196E-34
4.8E-5                    -3.7949703926434636E-32  1.4752946535085008E-31   -3.69926703400581E-32    8.137270572294216E-33    -2.3530148292783588E-31  3.999667437181575E-31    -1.407709231970551E-31   -2.2375771294731313E-32  -7.14978734993053E-33    1.147816796367027E-33    -1.5010221498656084E-35
4.9E-5                    -7.191629000812088E-32   9.223629085469797E-32    -6.60523908048053E-33    1.1966319945680215E-32   -2.23479567967678E-31    1.8660969141282395E-31   -3.2831952202383604E-31  2.942806999285424E-32    -2.1066067196298754E-32  1.568868194892832E-33    2.695174058012743E-34
4.9999999999999996E-5     -8.34400406036233E-34    -1.3739987062108973E-31  4.4501785780323505E-32   1.0820761122489201E-32   2.4763084047577777E-31   -4.739269537564579E-31   -1.4622258680999432E-31  7.646927968408671E-32    -1.1206125956584056E-32  -1.4480739582782622E-34  3.511771005253221E-34
5.1E-5                    1.1887915582345735E-31   -2.805331438613038E-31   6.256473624632961E-32    -3.779308607484563E-33   6.065944506699251E-31    -9.312633832653687E-31   3.15703818785577E-31     4.122005473337988E-32    2.1728597525840004E-32   -2.386008372541674E-33   -1.450449127520284E-34
5.2E-5                    1.1673571862117483E-31   -9.546931047924617E-32   1.3035067099679628E-32   -4.2038615899530285E-32  1.029570357184761E-31    -3.546688666989921E-31   5.432866835015535E-31    -8.029179392457859E-32   4.150677918971746E-32    -2.155899204341296E-33   -8.591291757045698E-34
5.3E-5                    -7.100136850270997E-32   2.9923304725386524E-31   -7.266120578981031E-32   -8.688611125465783E-32   -9.079681729047533E-31   1.1506851662416853E-30   1.7660045666517176E-31   -1.6431771355629391E-31  1.2339571837944447E-32   9.897309135712136E-34    -6.9549894765563825E-34
5.4E-5                    -2.55310960402303E-31    4.73738162850027E-31     -1.0910627132122685E-31  -6.751473858117253E-32   -9.787959969348402E-31   2.028111757993557E-30    -4.754930279268959E-31   -6.865240127679891E-32   -4.831940811100528E-32   3.546471537584948E-33    8.054220408505119E-34
5.4999999999999995E-5     -1.6987311389634891E-31  1.3421118176373675E-31   -3.78140991834165E-32    7.829618726841131E-32    5.038156642639024E-31    6.154447293064249E-31    -7.174294921656313E-31   1.7074951835152574E-31   -7.095108560784712E-32   2.1325523700355843E-33   2.1437638749806797E-33
5.6E-5                    1.900938796533169E-31    -4.956012215048091E-31   9.650611479064975E-32    2.7169077763949265E-31   1.9257677833098386E-30   -2.457924928829029E-30   -2.700867144440805E-31   3.037841888626085E-31    -9.822927719917251E-33   -1.667081214159293E-33   9.77818616045343E-34
5.6999999999999996E-5     4.762836409764508E-31    -7.89647241045437E-31    1.7082936485186107E-31   2.856693964165433E-31    1.0763678544277777E-30   -3.8887355541112416E-30  4.152681563261174E-31    1.1437724875779038E-31   8.589001489384989E-32    -2.9823630928877477E-33  -2.5442468168350196E-33
5.8E-5                    3.024796015299476E-31    -3.0274538654091074E-31  1.0342945389511084E-31   -2.1985420406714336E-32  -1.7067167724971353E-30  -1.0290558337391148E-30  7.103708767852909E-31    -2.8224640767068888E-31  1.0626631107580388E-31   -7.387615620340056E-34   -4.404023533803224E-33
5.9E-5                    -3.198900690607786E-31   6.815523819019592E-31    -6.04950201847469E-32    -4.720164126525346E-31   -3.16061288366841E-30    4.2436376998699536E-30   4.764430821828851E-31    -4.801435096392331E-31   5.872063675211547E-33    2.7300013140086417E-34   -7.508557247575541E-34
5.9999999999999995E-5     -8.612920859465677E-31   1.2479317078372545E-30   -1.9654289212724228E-31  -6.693272865762332E-31   -7.990970903380832E-31   6.395721625399901E-30    4.6479849063671563E-32   -2.049682393520794E-31   -1.228480806381105E-31   -2.627430256487876E-33   6.02652050013511E-33
6.1E-5                    -6.661246042658083E-31   6.886639190761675E-31    -2.185561859180071E-31   -3.8274660478158655E-31  3.472872684014355E-30    2.085398749277722E-30    -2.8217786004571483E-31  3.355137890260934E-31    -1.3655887083824855E-31  -3.100602106181137E-33   7.658909896619006E-33
6.2E-5                    3.723844033883798E-31    -6.737343718950908E-31   -1.240796062319412E-31   2.55847173620066E-31     4.7090029612456615E-30   -5.448965298581159E-30   -5.1236036513428384E-31  6.238025982618028E-31    -6.989113229488262E-33   6.258921022278345E-33    -5.844006110471951E-34
6.3E-5                    1.461069818337394E-30    -1.6543467042657695E-30  5.406182438597894E-32    9.202605003154102E-31    4.604935657033057E-31    -9.00898173507666E-30    -7.419634783942367E-31   3.7476807806459175E-31   1.3344702155909854E-31   1.8210306120050445E-32   -1.150768191496235E-32
6.4E-5                    1.4284389056879364E-30   -1.3311094039229117E-30  2.7401679702226316E-31   1.2860673673995574E-30   -5.6873438070630886E-30  -4.60739326473011E-30    -8.600849222364525E-31   -1.8300703420903872E-31  1.3745378376110917E-31   1.2158025417501164E-32   -1.1456834868620253E-32
6.5E-5                    -1.0617107645994516E-31  7.546593495041627E-32    4.363064959212433E-31    1.011372437822815E-30    -7.137227735238403E-30   4.39634287257801E-30     -4.888244833408955E-31   -5.962982429592428E-31   1.3004935140823422E-32   -1.9615123419873423E-32  3.1379571036404565E-33
6.599999999999999E-5      -2.0514594613612978E-30  1.5039832141321863E-30   3.787507660214186E-31    -1.6782994936532927E-31  -1.1594222063791132E-30  1.0290149262782304E-29   7.178250805523959E-31    -6.258560246050551E-31   -9.11595418236004E-32    -4.980861306878719E-32   1.7981983856524234E-32
6.7E-5                    -2.6051839027822836E-30  2.0345142620079802E-30   1.6842108439851693E-32   -1.946444712436759E-30   7.65840878891133E-30     8.040345056072614E-30    2.460092918428038E-30    -3.013110781138447E-31   -6.873295405584555E-32   -3.422604593671155E-32   1.5111053033716483E-32
6.8E-5                    -9.37657251180451E-31    1.4137888243395004E-30   -4.988888529194304E-31   -3.1279674450101643E-30  1.1198088110738254E-29   -2.131003118696563E-31   3.3730070587263E-30      2.7670333264612313E-31   1.7246647487165672E-32   3.60106000884787E-32     -5.187587595301466E-33
6.9E-5                    1.8799036496389097E-30   -1.0606643466996988E-31  -8.376787564674373E-31   -2.3340110751657126E-30  5.136557042332061E-30    -7.365324962712507E-30   1.7435861380304353E-30   8.920203706124942E-31    1.7079457173091737E-32   1.0308053886448071E-31   -2.2395319415660163E-32
7.0E-5                    3.6940786433715296E-30   -1.9540660144486237E-30  -7.5071397459036655E-31  5.2820923520385055E-31   -7.005231354761658E-30   -8.298501459786186E-30   -2.573839794764514E-30   1.0296067869438863E-30   -1.0959081318552787E-31  8.227576994672774E-32    -1.8529078870546624E-32
7.099999999999999E-5      3.0265126063447003E-30   -3.204630775813531E-30   -2.6647020510355157E-31  3.644677338834273E-30    -1.617825034972019E-29   -4.526273844478014E-30   -6.899473277690169E-30   2.139708160637383E-31    -2.0566265287308846E-31  -4.4961013153990076E-32  1.872520894106592E-33
7.2E-5                    1.5277460867334547E-31   -2.8268931202202703E-30  3.695232983789382E-31    4.657670456079241E-30    -1.4284055337994873E-29  -1.3021457675967838E-30  -7.253460115580212E-30   -1.167764303455737E-30   -5.185047755136871E-32   -1.7711582086364995E-31  1.9212807732406043E-32
7.3E-5                    -3.2171496941977555E-30  -4.316718978912501E-31   8.827908320365659E-31    2.9286330630403563E-30   -4.808721542354197E-31   -5.7792353191197965E-31  -1.9999402655308483E-30  -1.7383445224946582E-30  3.641717678880828E-31    -1.6352077780205754E-31  2.1919954627721104E-32
7.4E-5                    -5.092732099859695E-30   3.1149931091969286E-30   1.0721410686206786E-30   1.57954013489814E-31     1.6770215196563802E-29   1.3095190887942436E-30   5.981225521471648E-30    -4.575323901878187E-31   6.973212522606445E-31    3.392008487694335E-32    1.381639508781164E-32
7.5E-5                    -4.265724171242361E-30   5.8755496832594385E-30   8.35565771980131E-31     -1.6634828651989625E-30  2.460072240275183E-29    8.021896535470483E-30    1.1231634788913422E-29   1.818476944534418E-30    4.625236686840933E-31    2.5464719743512505E-31   7.68377200927782E-35
7.599999999999999E-5      -8.144159873298418E-31   5.7648551747397554E-30   2.457985030258423E-31    -2.6780743409297648E-30  1.5769528020262687E-29   1.6591942708033707E-29   1.0144457483789692E-29   2.6642523125368184E-30   -4.379716750175367E-31   2.6460482190422097E-31   -2.1206653769229343E-32
7.7E-5                    3.9085946863196994E-30   1.765231639433026E-30    -4.034605045782545E-31   -4.62037765847386E-30    -4.294870338312602E-30   1.809417117117282E-29    3.598281798447047E-30    5.166917920046347E-31    -1.3878026734431638E-30  4.206119229134755E-33    -4.509398128300844E-32
7.8E-5                    7.631084789443697E-30    -4.9678666577049665E-30  -8.102544424996547E-31   -7.4413899742436E-30     -2.153099388915862E-29   5.5332234905957054E-30   -4.499670828526887E-30   -3.247572787064355E-30   -1.445826149384528E-30   -3.0873736541605925E-31  -4.6496327422204157E-32
7.9E-5                    7.918912281357679E-30    -1.0795098375853888E-29  -1.0776234524315415E-30  -7.627451208896277E-30   -2.574736973893766E-29   -1.8370577534016225E-29  -1.070368136225565E-29   -5.085164614070615E-30   -2.4024509604950046E-31  -3.6738797543723455E-31  4.751945943803377E-34
7.999999999999999E-5      3.520752313014419E-30    -1.1124245114899722E-29  -1.8409703596389275E-30  -1.7665733436480506E-30  -1.8463848985128997E-29  -4.0267879265219305E-29  -1.365220168130154E-29   -2.4843078273992874E-30  1.5399612166203464E-30   -7.883486338212847E-32   8.062390508643058E-32
8.099999999999999E-5      -4.182512393637591E-30   -3.8339883574404E-30     -3.7398266013403134E-30  7.857115686682259E-30    -7.59653681103762E-30    -4.370896710973221E-29   -1.2715627999734704E-29  3.4452533775605996E-30   2.623963835938529E-30    3.3110023949999503E-31   1.2533968843872307E-31
8.2E-5                    -1.1129577363333717E-29  7.801541847700825E-30    -6.609661314170902E-30   1.322429226052376E-29    3.263065888240735E-30    -2.1026944431326742E-29  -6.800792372603513E-30   8.47896182971848E-30     2.116489624247167E-30    5.060348501014427E-31    6.495457796907E-32
8.3E-5                    -1.2953013486322465E-29  1.6208785398617035E-29   -9.296798216622844E-30   8.405218075827908E-30    1.655730148706534E-29    1.880789801766623E-29    3.625442357081215E-30    8.443524170611872E-30    5.261356202283013E-32    2.487163415939701E-31    -8.87838552543728E-32
8.4E-5                    -8.243463769638149E-30   1.5181530422937201E-29   -1.0494804583978671E-29  -2.6327679657804274E-30  3.190934642751321E-29    5.398025928116989E-29    1.3673027426368154E-29   2.38071564440834E-30     -2.647175515901481E-30   -3.141194557004675E-31   -2.1729707284849715E-31
8.499999999999999E-5      5.185891617962209E-31    5.4495318633768764E-30   -9.868841028450915E-30   -8.388317757405077E-30   4.0225167275356736E-29   6.427972549512279E-29    1.6178927244777203E-29   -6.643563147230685E-30   -4.468280827870991E-30   -7.727699251792338E-31   -1.8156052170605213E-31
8.599999999999999E-5      9.36704859234251E-30     -5.824192313418671E-30   -8.331403869455652E-30   -2.0857058179241795E-30  3.0440622274769477E-29   4.4885215224199506E-29   9.118245764468017E-30    -1.3449515178520712E-29  -3.8508878415022385E-30  -6.751562966925582E-31   3.5464111570400113E-32
8.7E-5                    1.5627556303326179E-29   -1.1849382029282836E-29  -7.244020866317295E-30   8.638475381352099E-30    1.3585189407488118E-30   7.610508290953879E-30    -4.314551891546664E-31   -1.3959395759386997E-29  -2.802761319289939E-31   9.969893635982117E-32    2.7250111559788037E-31
8.8E-5                    1.7911385412364046E-29   -1.2385686534884057E-29  -7.4275532837879E-30     6.43425805773175E-30     -3.579714828519588E-29   -3.05403886840794E-29    -2.918472752580677E-30   -7.680269914380065E-30   4.627234960217756E-30    1.0842113014911502E-30   3.095268398035211E-31
8.9E-5                    1.4474799134121415E-29   -1.2613967147636064E-29  -8.80379303720885E-30    -1.9247246653982373E-29  -6.67385502788E-29       -5.967829955935525E-29   2.4339479115805107E-30   2.0920910306538195E-30   7.474408530339146E-30    1.4362866480161006E-30   7.746699617503993E-32
8.999999999999999E-5      3.7277392173386844E-30   -1.611560377489015E-29   -1.0597638551884641E-29  -5.976431653097227E-29   -8.448292272717072E-29   -7.94959158550774E-29    5.138804231172402E-30    1.0461111715441047E-29   5.454042100998021E-30    6.419699347865719E-31    -2.4893124516414244E-31
9.099999999999999E-5      -1.2664802148419554E-29  -1.9755342964260844E-29  -1.172389471245052E-29   -9.25428649087803E-29    -9.07219230764132E-29    -9.345506537296532E-29   -6.866174722113741E-30   1.3873729080453144E-29   -8.970356110161044E-31   -8.834054490220377E-31   -3.9006097202677854E-31
9.2E-5                    -2.83509850023055E-29    -1.570268756923633E-29   -1.1420143005231348E-29  -1.0041510156895552E-28  -8.958742435540789E-29   -1.0402193570661585E-28  -3.6483098955819436E-29  1.1649988351512778E-29   -7.298224542210479E-30   -1.9965374193223405E-30  -2.131669841366675E-31
9.3E-5                    -3.561268614123156E-29   1.4978386194372776E-30   -1.0093889342945057E-29  -8.671527249243721E-29   -8.277546512680476E-29   -1.1281226986108275E-28  -7.653117465667043E-29   5.452318002260666E-30    -8.761585521876957E-30   -1.7868618252466077E-30  1.4615151849966171E-31
9.4E-5                    -3.0571221977365325E-29  2.847986253511726E-29    -9.526014104712368E-30   -7.148149268582369E-29   -7.158677226829838E-29   -1.2101063078078437E-28  -1.1670829638195133E-28  -2.0744431075129603E-30  -3.95085938646239E-30    -3.917174142657395E-31   4.057335565850101E-31
9.499999999999999E-5      -1.5015874143441526E-29  5.142707226418483E-29    -1.164473212732508E-29   -7.332820201004543E-29   -6.189115510248296E-29   -1.2719122122499982E-28  -1.4971860376096269E-28  -8.445733740330882E-30   3.0560819504453234E-30   1.1642314168608358E-30   3.7322646125556248E-31
9.6E-5                    5.9353395069328964E-30   5.10684563921347E-29     -1.6718896387680583E-29  -9.5514702667223E-29     -6.36317279492364E-29    -1.270370668585297E-28   -1.7311789569198264E-28  -1.2661020884418338E-29  5.8718605403423606E-30   1.915634572571738E-30    7.600166007936744E-32
9.7E-5                    2.6440297634745027E-29   1.3163578883117158E-29   -2.2959394317075103E-29  -1.2790573596675416E-28  -8.401554577842612E-29   -1.1839351579553255E-28  -1.8893990663265844E-28  -1.666125737621844E-29   1.6865625842887623E-30   1.6858419632840956E-30   -2.992821255983954E-31