% Model:              analysis.mph
% Version:            COMSOL 6.0.0.405
% Date:               Jul 28 2023, 12:28
% Dimension:          1
% Nodes:              10001
% Expressions:        11
% Description:        Point graph
% Time (s)                Displacement field, Y component Displacement field, Y component Displacement field, Y component Displacement field, Y component Displacement field, Y component Displacement field, Y component Displacement field, Y component Displacement field, Y component Displacement field, Y component Displacement field, Y component Displacement field, Y component
0                         0                        0                        0                        0                        0                        0                        0                        0                        0                        0                        0
1.0E-6                    -1.0021640151472784E-43  -3.7060613023647116E-44  -5.1797068918621696E-45  -4.432481606737503E-46   8.091270480584525E-47    3.463948100292047E-47    5.3379494653171145E-48   2.235726267073157E-50    4.603192881158285E-51    3.8059873391427435E-52   3.8248182737268786E-53
2.0E-6                    8.138980611403158E-43    5.389641337127354E-43    8.113545583013209E-44    8.989256672691075E-45    -5.208274053434254E-46   -4.23590747304882E-46    -5.45510717058294E-47    -2.6561360116422584E-49  -4.90577957233544E-50    -3.770795121054828E-51   -2.8488081747873706E-52
3.0E-6                    -2.293554267479956E-42   -3.8085911483379906E-42  -8.12057604959932E-43    -1.606712318956799E-43   -4.97012014755804E-45    1.6063018916099316E-45   1.7813589354911984E-46   -1.560123383602428E-49   1.1207361607051107E-49   9.852389879202135E-51    4.6880296383281824E-52
4.0E-6                    1.2200471339479586E-42   1.218531498866762E-41    3.6949920927563494E-42   1.0441039458573553E-42   5.596767574438047E-44    6.333055690789855E-46    4.64546882090872E-47     1.0374198792715051E-47   5.480290775354164E-49    -4.5892565780696125E-52  6.019948825416333E-52
4.9999999999999996E-6     6.62327210946161E-42     -9.08822252783281E-42    -5.369821674192571E-42   -2.8425796870063428E-42  -2.440214528537692E-43   -4.0006548712645216E-44  -3.4326214935253555E-45  -7.74144773940609E-47    -6.385656624924132E-48   -1.893992908081258E-49   4.1914602964827027E-51
6.0E-6                    -1.5172606587979482E-41  -6.953722927633441E-41   -1.8061751705606149E-41  -7.164696038783576E-43   4.4779264176394366E-43   1.9494927882208374E-43   1.5346364686500213E-44   2.433628758065946E-46    2.62536681509897E-47     1.3406538644762112E-48   -8.1208575116261325E-50
7.0E-6                    3.014973574527234E-41    2.3580550251199317E-40   7.800304409643212E-41    2.311710995515882E-41    5.3948689318599706E-43   -3.5753965178136826E-43  -2.0721051513131254E-44  -8.866026373833692E-47   -3.7075633461121245E-47  -4.620365637568318E-48   4.345043155702197E-49
8.0E-6                    -5.397989189293941E-41   -3.745367162382864E-41   -2.0512186422664835E-41  -3.998614567612225E-41   -4.463972473589306E-42   -3.460572533866473E-43   -5.781660548551787E-44   -1.5346053343855995E-45  -1.005344846334809E-46   6.163432462922036E-48    -1.1126827302114468E-48
9.0E-6                    -2.5937858017402373E-40  -1.2856446354979359E-39  -3.894439795397247E-40   -5.481014903096329E-41   6.488920643907571E-42    2.897890868805344E-42    2.241313697129624E-43    3.764391719513295E-45    4.957929041687161E-46    1.2401650889144642E-47   4.2028067925218654E-49
9.999999999999999E-6      7.1177286323048544E-40   1.7662493949942927E-39   5.045711388546318E-40    2.4443389405047745E-40   9.854581905969213E-42    -3.910626658426618E-42   2.7279354579110277E-44   4.258525066730379E-46    -3.526677794760993E-46   -6.475640893745042E-47   6.69551777646827E-48
1.1E-5                    1.2803330982927261E-39   4.617304213857909E-39    1.3687161888308094E-39   -5.562683595029204E-41   -4.1619715807521534E-41  -6.505345354338476E-42   -1.1344582136602602E-42  -1.6365306702468674E-44  -2.3741466448398095E-45  8.613483265547275E-47    -2.1045732942201763E-47
1.2E-5                    -2.7624436244322064E-39  -1.1151058831882742E-38  -3.027862497473859E-39   -8.06225195245053E-40    2.3226915526685084E-41   2.312399532701446E-41    5.08995718792704E-43     2.296866768751303E-44    4.9700328678341925E-45   2.452086843818369E-47    1.494319059648904E-47
1.3E-5                    -4.8769494873563454E-39  -1.420079686066919E-38   -4.242913995988188E-39   8.851379553032113E-40    1.0125150038209737E-40   3.8571020836066505E-42   5.066371319740747E-42    2.3689688219025007E-44   9.520619706904649E-45    -1.9335387788720896E-46  6.79369637608699E-47
1.4E-5                    3.947374307982436E-39    4.974909682049144E-38    1.3248134640145602E-38   1.726008606372577E-39    -2.2685231812316358E-40  -7.470696150647623E-41   -2.64887760434459E-42    -8.357470505235805E-44   -3.4140059427899114E-44  9.618578989315085E-46    -1.966320879545763E-46
1.4999999999999999E-5     1.0783882959213172E-38   4.399305819920659E-38    1.279941073177493E-38    -3.977364304699892E-39   2.7127157801025317E-41   -2.0839979431878316E-41  -2.3852482013644246E-41  1.8595875448710917E-46   -4.365146295178813E-44   -3.126174627573952E-45   9.287978475551175E-47
1.6E-5                    9.81895557540267E-39     -1.8851055588158087E-37  -4.955221775386914E-38   -1.707065239093242E-39   8.746667377069502E-40    2.3760325289574386E-40   8.807553577683969E-42    5.967413444195848E-44    1.894518101973956E-43    -3.429959632182326E-45   5.2985433026305665E-46
1.7E-5                    4.326264763267852E-39    -1.5145606152466422E-37  -3.9386182966783133E-38  1.3455033514630783E-38   -1.2558213809654216E-39  2.9794862390713824E-40   1.1132913256817123E-40   1.7548930317439823E-43   2.3642576895829345E-43   2.956223352906662E-44    -1.1771276533956508E-45
1.8E-5                    -6.740717380915381E-38   6.382490072071418E-37    1.6829418217463906E-37   -5.4425982479847346E-39  -2.5123014009526036E-39  -8.70964350072036E-40    -2.5710514006391194E-41  4.857599056670523E-43    -8.446263805475361E-43   3.765488874677089E-45    3.3666865093399058E-46
1.8999999999999998E-5     -1.369743922392028E-37   5.754990307261861E-37    1.3342302647258267E-37   -4.302529876998062E-38   6.051539934396732E-39    -1.8327080679309432E-39  -4.514685152149639E-40   -1.2609436978740548E-42  -1.3630812865451936E-42  -1.5661315538421652E-43  3.0516270226458166E-45
1.9999999999999998E-5     1.8881329275953593E-37   -1.9264455759986754E-36  -5.240108292879401E-37   3.810149517223931E-38    6.721307578746977E-39    2.7988797708580798E-39   5.24238116140046E-41     -2.3278638844443237E-42  2.7396127929064607E-42   -1.9161618386799905E-44  -5.872013130147193E-45
2.1E-5                    6.371423416026848E-37    -2.2020681491192402E-36  -5.158142661150544E-37   1.431595234728953E-37    -1.8869365753890318E-38  7.699764998889398E-39    1.4922620424795177E-39   -3.3093410122344124E-43  7.28201648646719E-42     6.082196593122919E-43    -8.300121501634435E-46
2.2E-5                    -3.2777385712707494E-37  5.0315448993398986E-36   1.4188856724265754E-36   -1.222802947660842E-37   -1.846912630587087E-38   -5.5538303193320544E-39  2.534762686131435E-41    5.7245466030775E-42      -4.143022842438105E-42   3.4907552966913475E-43   9.181481709799196E-45
2.3E-5                    -2.046897440063094E-36   7.740981535229832E-36    2.0128518521540897E-36   -4.702042128785469E-37   4.3152528893561534E-38   -2.478172610403296E-38   -3.8747998770868436E-39  4.3966381255920914E-41   -3.239635099794208E-41   -1.6439048514790012E-42  2.7295003973674426E-45
2.4E-5                    2.506667958981925E-37    -1.0844828890346857E-35  -2.9572150446253508E-36  1.9268335236909333E-37   4.896444529077728E-38    -2.7918829571668317E-39  -5.192374720838332E-40   3.702187707232886E-42    -1.9558783556698988E-41  -2.7297093716186602E-42  8.9280535471148E-44
2.4999999999999998E-5     5.3963003390901104E-36   -2.3784491045730815E-35  -6.79111960937391E-36    1.331209578496639E-36    -7.101280922275131E-38   5.869385051038387E-38    7.295297736407985E-39    -3.190342007595826E-40   1.1006272737048227E-40   1.2977463361598113E-42   -2.396073246038391E-43
2.6E-5                    4.880419684503575E-37    1.7670944769990387E-35   3.3671374325523737E-36   2.610875717827376E-37    -1.120496356890912E-37   7.55244193392045E-38     3.105255444095059E-41    -1.6476298512572656E-40  2.012568118898391E-40    1.2731474103099728E-41   -8.686239651894748E-43
2.7E-5                    -1.2855616564678284E-35  6.297543584961742E-35    1.8194919037383875E-35   -2.7295793748626823E-36  7.288560942182192E-38    -7.066941420660136E-38   -7.562724671703343E-39   1.4161736681265552E-39   -2.374588914514371E-40   1.6818397008335926E-41   2.2937191566642873E-42
2.8E-5                    -2.0697678199905748E-36  -1.5370348027583774E-35  4.4697836583646516E-36   -2.5643871059033523E-36  2.134947740641483E-37    -3.524991378464245E-37   1.673192195581826E-38    1.2386570875544568E-39   -1.0149790184931344E-39  -3.5771678580055657E-41  5.0891822115030976E-42
2.9E-5                    3.194836564278146E-35    -1.4449801473698495E-34  -3.688977779950248E-35   2.329807376650788E-36    -1.943329792459051E-38   -1.7841206394297914E-37  -1.2075230467817588E-39  -4.454147666524845E-39   -2.821719415803439E-41   -1.2257774818889131E-40  -1.3425911163105416E-41
2.9999999999999997E-5     8.228613432403076E-36    -2.542812702775883E-35   -3.607782983533747E-35   6.933737357665355E-36    -3.993487866287211E-37   1.0245168561062466E-36   -1.1916908385252553E-37  -6.007851101662477E-39   3.5857688091229673E-39   2.3802318679297705E-41   -2.4772306487768946E-41
3.1E-5                    -8.488018443547497E-35   2.897082717272656E-34    5.11767034441625E-35     7.796910052273892E-36    -6.770997772872013E-38   1.4695300930780488E-36   -1.9892211682226896E-38  9.582063234522206E-39    3.041898435734473E-39    5.0599599357851815E-40   5.909571248978084E-41
3.2E-5                    -5.224497236094168E-35   1.7319468730777226E-34   1.1398085443653276E-34   -2.6217655688958402E-36  1.0659929483836757E-36   -1.9031122946335342E-36  5.02607786638814E-37     2.1154178910957094E-38   -9.073461024343792E-39   3.4797553932307177E-40   1.0744582554118417E-40
3.2999999999999996E-5     1.948557237574961E-34    -5.000616167286023E-34   -1.9016843891964438E-35  -3.670979720284056E-35   3.3589808126573373E-37   -5.457527198389935E-36   3.4922170215386603E-37   -9.127431189176105E-39   -1.636017182577369E-38   -1.4363843340377844E-39  -2.0852282474380858E-40
3.4E-5                    2.417242227744374E-34    -5.643949371479032E-34   -2.535739134004589E-34   -5.111163398952389E-35   -3.6821475567613256E-36  1.104888781386708E-36    -1.4775923153137485E-36  -5.404694688887737E-38   1.365913806898393E-38    -2.2232389285519047E-39  -4.180980048431104E-40
3.5E-5                    -2.8801876560409756E-34  6.802905731971312E-34    -1.6689472789072145E-34  5.968568147387592E-35    -2.572455987643088E-36   1.3971227061466997E-35   -1.9572979936300656E-36  -2.7808086759406937E-38  5.568660752345164E-38    2.631844041337311E-39    5.974081212140916E-40
3.6E-5                    -7.126835608869624E-34   1.3936862495160347E-33   3.9037027180109914E-34   2.247675232477282E-34    1.1075522505902352E-35   7.015410207117449E-36    2.971929753819374E-36    8.698049735890621E-38    7.043051318906977E-39    8.218758203855682E-39    1.4428084947311179E-39
3.7E-5                    5.941528134417271E-35    -4.775334674976647E-34   6.895978526566628E-34    5.804587889234214E-35    1.4336568170718438E-35   -2.5192950284225247E-35  6.953259561684371E-36    1.6767350361974057E-37   -1.3492124123343647E-37  -1.3028140411117303E-39  -1.3518319343167997E-39
3.7999999999999995E-5     1.3521568564456E-33      -2.715077219660806E-33   -1.6935934319979391E-34  -5.247133623384578E-34   -2.346168666963617E-35   -3.1810487284955385E-35  -2.9752331975644742E-36  -8.453636602559506E-40   -1.2465357686724545E-37  -2.2040079693033913E-38  -4.345459018488744E-39
3.9E-5                    8.88365415516395E-34     -8.316214555058271E-34   -1.5349601616522041E-33  -6.027116334403961E-34   -5.452548167177273E-35   2.578730876127361E-35    -1.7676401676682692E-35  -4.6633078618696715E-37  2.127299298682837E-37    -1.1050080201444604E-38  2.163665403444516E-39
3.9999999999999996E-5     -1.5037685239264259E-33  3.9032131824624384E-33   -1.1754526459993832E-33  6.582893671847847E-34    2.2355845475167854E-35   7.675375077130486E-35    -4.490469770843924E-36   -5.576348235716879E-37   4.6241914066429315E-37   4.5799903267618863E-38   1.1185567337893098E-38
4.1E-5                    -2.425991239852284E-33   3.936065800433105E-33    1.658929640849195E-33    1.8122015705014073E-33   1.4728239771509155E-34   1.3357714276925283E-35   3.2310435269504375E-35   7.397029514599059E-37    -6.21074468127087E-38    5.170015565869327E-38    -1.2927781925814117E-39
4.2E-5                    2.991692212844261E-34    -3.0712792158897758E-33  3.825276924365029E-33    1.7133363072154695E-34   5.942192558400263E-35    -1.1451548479461205E-34  2.758820394719963E-35    2.261851182659862E-36    -1.0641430305290026E-36  -7.725769737914399E-38   -2.3754420293641463E-38
4.2999999999999995E-5     3.369380928074083E-33    -8.001451582158239E-33   1.321892714203068E-33    -3.268089056719873E-33   -2.7039585957674587E-34  -1.1331635500835865E-34  -3.8691117704756324E-35  2.1905701813563718E-38   -8.88187876679181E-37    -1.5433969690071607E-37  -4.870195307565038E-39
4.4E-5                    2.2052722725591894E-33   -2.235921650124514E-33   -4.776916120067066E-33   -2.93082178993E-33       -3.386614693818974E-34   6.812001089587738E-35    -6.433078752543097E-35   -5.7679162049469485E-36  1.4287763021525468E-36   1.0830425123215479E-37   3.863601667262019E-38
4.4999999999999996E-5     -2.0925458990551445E-33  8.676169041044576E-33    -7.76911412601523E-33    3.186157058140451E-33    2.4115640158859408E-34   2.1268432515782187E-34   2.010687780940057E-35    -4.644805984661842E-36   3.4137440194418816E-36   4.08109712103953E-37     1.507398180067923E-38
4.6E-5                    -4.18612872926162E-33    1.118907981908354E-32    -2.195726376454305E-33   7.326022745898549E-33    8.316928751270514E-34    1.2303001760871617E-34   8.635887202758152E-35    1.004351074657894E-35    3.653405468525291E-37    -8.112301738137799E-38   -3.9275722503546223E-38
4.7E-5                    -1.7110754673643586E-33  6.875016435024971E-34    9.43391015619296E-33     1.178796344030574E-33    3.1846254751569545E-34   -1.093515469330024E-34   7.503342438984997E-36    1.838330182349635E-35    -7.257745760296805E-36   -1.0465421954344717E-36  9.211237088136394E-39
4.8E-5                    2.8917598163249544E-33   -1.404148828892958E-32   1.6550817189621684E-32   -9.688846281606076E-33   -1.1026777067710936E-33  -2.8230563576575957E-34  -6.362532411172494E-35   -8.008474955204837E-36   -8.205969975860454E-36   -3.585208694474124E-37   8.527665321128779E-39
4.9E-5                    5.694995029410698E-33    -1.9083497255150005E-32  7.445357084238895E-33    -1.0204540443841424E-32  -1.5648385579771662E-33  -3.333252493006734E-34   4.408283440316558E-35    -4.571371626310813E-35   7.930465633362896E-36    2.3982239521745217E-36   -2.2680560086800768E-37
4.9999999999999996E-5     2.8878094494592358E-33   -4.4059593797047106E-33  -1.7788425315437655E-32  3.279918656660532E-33    1.6982737455578856E-34   -1.5138443067636114E-34  7.991511337822592E-35    -1.9618206762885744E-35  2.5557048856873986E-35   2.455804071510241E-36    -5.319542379566964E-38
5.1E-5                    -5.980541911528789E-33   2.467467107271743E-32    -3.6798840962472674E-32  1.6164133998639733E-32   2.5252530194263962E-33   5.427365426501417E-34    -2.36754693311863E-34    7.631422425920513E-35    7.160690258278896E-36    -4.028134935323854E-36   1.0134298903242868E-36
5.2E-5                    -1.1605658430188213E-32  3.9505467678749186E-32   -1.883627879657326E-32   1.3548360749512318E-32   2.3886852438948398E-33   1.4536512850057017E-33   -4.2100729472984535E-34  1.0104067229299178E-34   -4.62679514278073E-35    -8.682892515903859E-36   8.348467973835379E-37
5.3E-5                    -1.2432117657895089E-33  1.1097872110258509E-32   3.4164673538887435E-32   -3.799573381065835E-33   -1.0648174950574226E-33  1.0510230363007109E-33   2.6401992119616783E-34   -5.950344649807226E-35   -5.574835990216591E-35   2.413323989276868E-36    -2.759377734651778E-36
5.4E-5                    1.8869395027915132E-32   -4.4266917914823555E-32  6.894875000597424E-32    -2.3285048718452476E-32  -4.5058896316521546E-33  -1.8443529295690814E-33  1.2264033317415393E-33   -2.349777965150729E-34   4.027072773994106E-35    2.0606578580397714E-35   -4.431350896013799E-36
5.4999999999999995E-5     2.0069745311390946E-32   -6.576562717988056E-32   3.3030893149965487E-32   -2.873575310296714E-32   -3.4421266280674684E-33  -4.913095721887419E-33   7.009600045642982E-34    -9.864515093213256E-35   1.3810041144903992E-34   1.1154132120609792E-35   4.471310177724837E-36
5.6E-5                    -1.1386559172968839E-32  -1.976846529012353E-32   -5.100786626858452E-32   -5.720305704425477E-33   2.3183701606601345E-33   -2.7751571716129203E-33  -1.573579607199682E-33   3.1175804076344488E-34   4.569868024631043E-35    -3.2232555147548186E-35  1.4893067464093234E-35
5.6999999999999996E-5     -4.3767417967257276E-32  5.056510828040823E-32    -9.667111650597589E-32   4.029231362196235E-32    6.959590211573997E-33    6.0120137109595185E-33   -2.9124428600348907E-33  4.3853959217623945E-34   -1.9690119854532175E-34  -4.6384437338053164E-35  5.327027850759643E-38
5.8E-5                    -3.1799660838717716E-32  7.799849869564579E-32    -5.324895837964003E-32   6.694208127308599E-32    4.363660144532662E-33    1.2737798439056707E-32   -6.020886739538615E-34   -9.339363832668085E-35   -2.3715663624700185E-34  2.3362672004825593E-35   -3.538052085220046E-35
5.9E-5                    2.4069979081011324E-32   4.974534880431515E-32    3.6964857145135925E-32   2.6206437256499235E-32   -3.919421994328152E-33   5.1397421458295146E-33   3.918639630880579E-33    -7.458830503226365E-34   1.116037393662545E-34    9.904082651073322E-35    -2.7582233557300596E-35
5.9999999999999995E-5     7.378708990516989E-32    -3.529716035785054E-33   9.749410890280847E-32    -6.783490026697257E-32   -8.84504828006952E-33    -1.5236705509571612E-32  5.4692643843351087E-33   -5.546088552541444E-34   4.384136910265098E-34    3.30073359379431E-35     5.609295034258284E-35
6.1E-5                    7.021094815709162E-32    -6.40848274510528E-32    9.576157088693265E-32    -1.2663035045028034E-31  -4.179553542835212E-33   -2.6733628776410286E-32  6.819394150344048E-34    5.1635021249975135E-34   1.9065532555013472E-34   -1.375457838140473E-34   1.0349927824360977E-34
6.2E-5                    5.30796798690861E-33     -1.1429350936898902E-31  3.870773320992426E-32    -7.138876809515426E-32   5.26664982129413E-33     -8.495784352184403E-33   -7.186552124046578E-33   1.2301420863134275E-33   -4.259566709665146E-34   -1.4429798525826273E-34  -3.126813354183021E-35
6.3E-5                    -9.144465085111224E-32   -9.8437143845607E-32     -5.977517299890181E-32   7.630105009279486E-32    8.900747461837792E-33    2.968137942028259E-32    -9.88698227249695E-33    5.2013902222968985E-34   -5.505120536232094E-34   1.179920887494454E-34    -2.3197617756451444E-34
6.4E-5                    -1.5660925769676682E-31  1.7155071923959317E-32   -1.5644031791075111E-31  2.0039730416635886E-31   2.887554980226338E-33    4.774303439450034E-32    -2.0378083630529702E-33  -1.019113670175055E-33   8.641621420652384E-35    2.864291694925221E-34    -1.3325306414642741E-34
6.5E-5                    -1.1285087908401996E-31  1.5242456073361008E-31   -1.62746993890672E-31    1.7993970009381394E-31   -5.993821060120603E-33   1.6107269786769232E-32   1.1410509314244326E-32   -1.631279402772795E-33   6.204043880945255E-34    -1.6537212936387747E-35  3.2292195314906244E-34
6.599999999999999E-5      5.479689274024467E-32    1.747883335917539E-31    -2.572689835241597E-32   -1.4910794767023721E-32  -8.696047737848057E-33   -4.464914429883429E-32   1.691788430000699E-32    -4.2660375220444934E-34  2.8635547855117777E-34   -4.434258498123827E-34   5.201284820250866E-34
6.7E-5                    2.3649822395965836E-31   6.711416353843406E-32    1.7534375950718123E-31   -2.7130589073371623E-31  -2.7604111502436732E-33  -7.493686128552971E-32   5.371378535061398E-33    1.4435932643472378E-33   -3.5503587571266874E-34  -2.0665943746513704E-34  -1.2227674807736605E-34
6.8E-5                    2.7130850052230928E-31   -5.239636187874764E-32   2.7056255440709416E-31   -3.7400702136355385E-31  6.905237995224141E-33    -3.484969350539159E-32   -1.5344652498045716E-32  1.8758493217987093E-33   -2.6712316766226357E-34  6.1032326221267235E-34   -1.0072679050512718E-33
6.9E-5                    1.0925579699011882E-31   -9.864167877004497E-32   1.5882802169435922E-31   -1.6869622641255499E-31  1.2365737952466146E-32   4.921050450490599E-32    -2.4838265161400263E-32  1.622749418792721E-34    3.312134780311359E-34    7.193646087863541E-34    -6.894385675688894E-34
7.0E-5                    -1.3946072286726788E-31  -1.1301519066604733E-31  -9.052831170614134E-32   2.583646001061665E-31    7.736322088232033E-33    1.025098433563066E-31    -1.120814524722605E-32   -1.8420697596967305E-33  2.1070344673692524E-34   -5.643231687075707E-34   1.035400590541578E-33
7.099999999999999E-5      -3.2619674697719926E-31  -1.5000513126653086E-31  -2.9008502698003206E-31  5.923074999877355E-31    -5.666167424512432E-33   7.087875823515602E-32    1.455726998040726E-32    -1.5001728295884284E-33  -8.024523631295487E-34   -1.6708822832266637E-33  2.047223487592754E-33
7.2E-5                    -3.7882517888943536E-31  -1.6538487418524372E-31  -2.8022558407045263E-31  5.30222364883787E-31     -1.7933957724729594E-32  -2.7005197061637703E-32  2.9202373725578184E-32   1.0941228352285447E-33   -1.164601842453012E-33   -4.136301442483003E-34   2.611838319184213E-34
7.3E-5                    -2.8278845942727622E-31  -8.345564052062841E-32   -5.972402645739351E-32   2.589468285716759E-32    -1.823395015315049E-32   -1.143815020860932E-31   2.0573475358641537E-32   2.2581365733266887E-33   3.315841786679229E-34    2.424644860444026E-33    -2.8891505669320185E-33
7.4E-5                    -3.421382876345386E-32   8.687122524945993E-32    1.946126579308103E-31    -6.589058763386086E-31   -5.9722642970394273E-33  -1.2093569057118088E-31  -3.460260444265799E-33   -7.839177819567032E-34   2.4981348640252323E-33   2.9134280871055334E-33   -3.102380813292908E-33
7.5E-5                    3.162143027812168E-31    2.576285231542857E-31    2.689572753834228E-31    -1.0709942475179463E-30  8.505387930627476E-33    -3.6622716354514707E-32  -2.586137770798969E-32   -4.734873652390781E-33   2.5670675093228875E-33   -1.0104872319271279E-33  1.2901732584387724E-33
7.599999999999999E-5      6.114364263648898E-31    3.3543589416813773E-31   1.1416968199500082E-31   -7.892771086588265E-31   1.6137759062664467E-32   8.437453076269828E-32    -3.27330177011692E-32    -2.712457091170324E-33   -7.267609633792989E-34   -5.4179262945404415E-33  5.684005800986297E-33
7.7E-5                    6.551746906133696E-31    2.619817136746705E-31    -1.1272417216122581E-31  2.4113092068268948E-31   1.9203438022544465E-32   1.6098809517508716E-31   -1.768535943883488E-32   6.067815645870511E-33    -4.9109220912039146E-33  -3.9774254136883764E-33  3.6689933469060106E-33
7.8E-5                    3.5118801164373076E-31   4.4392973962387697E-32   -2.2991683309241537E-31  1.459798536592739E-30    2.6008538870746246E-32   1.351039954337285E-31    1.3503825204299365E-32   1.1948171352381802E-32   -5.1629993349780685E-33  3.596663754764514E-33    -4.277520649727344E-33
7.9E-5                    -2.17548134739123E-31    -2.3177849967495414E-31  -2.0567385755474873E-31  1.927037990765056E-30    3.537275113563318E-32    1.0531854942703069E-32   3.9543439818919494E-32   4.710526513177594E-33    6.315014457963117E-34    9.165310458896607E-33    -9.163527572814184E-33
7.999999999999999E-5      -8.11210014897382E-31    -4.846942977411515E-31   -1.1577751082560395E-31  1.0600278120754937E-30   2.796217803022434E-32    -1.4028054292390759E-31  3.7546736394285015E-32   -1.2287371740179569E-32  7.763440407798947E-33    4.859338628603821E-33    -3.334326974195206E-33
8.099999999999999E-5      -1.1404490888692906E-30  -7.257671814507994E-31   -1.83793302256337E-34    -7.877808240021827E-31   -2.181720924844126E-32   -2.16499463565806E-31    8.001430844850313E-33    -2.2451305396125613E-32  8.079593696793183E-33    -6.501289798517426E-33   8.698797538521097E-33
8.2E-5                    -1.042057970528385E-30   -9.676949587243317E-31   1.4127932760032096E-31   -2.5159677646521146E-30  -1.139237819932105E-31   -1.576652574100544E-31   -2.3796336548229404E-32  -1.29527314482941E-32    -1.877683038750337E-34   -1.2813442076659897E-32  1.296154711500379E-32
8.3E-5                    -6.144549824081178E-31   -1.0689304382764505E-30  2.3484531489719297E-31   -3.0314923702902835E-30  -1.9457612307309611E-31  9.927182503298529E-33    -3.785418279255708E-32   1.0935958786504209E-32   -8.37414107272401E-33    -6.0646428497934915E-33  1.9449846545871313E-33
8.4E-5                    -1.4150117339421627E-31  -8.540536485206999E-31   1.1808663235530602E-31   -1.888327399224645E-30   -1.7193543195444793E-31  1.8633536776326237E-31   -3.7543396923628267E-32  3.0672772236801075E-32   -7.503766196040176E-33   7.710866277582797E-33    -1.4194786989630468E-32
8.499999999999999E-5      1.6335833913184581E-31   -4.369420320748244E-31   -3.2274477698886875E-31  5.0563915561821384E-31   9.981873925137895E-33    2.60564322815325E-31     -2.763808633890624E-32   3.148676227704314E-32    -6.942980763035248E-34   1.457223813678776E-32    -1.669193689417465E-32
8.599999999999999E-5      2.9977154525432647E-31   -2.3151530586443286E-31  -1.0320269368205854E-30  3.0281307168289172E-30   2.9084598659551307E-31   1.820630975806065E-31    4.8352659741371924E-33   1.2143674092413287E-32   1.4501887052660621E-33   8.206126068016568E-33    1.67542420995129E-34
8.7E-5                    3.3613335418529098E-31   -5.240719229654377E-31   -1.805056187152375E-30   4.316980704227773E-30    4.94410862885392E-31     -1.9489806746805355E-33  6.119715278387389E-32    -1.8916259755916879E-32  -1.874575308456475E-33   -3.949251894034724E-33   1.9853746297033837E-32
8.8E-5                    1.9472964881681932E-31   -1.1686552476639402E-30  -2.406970946462298E-30   3.534968537024044E-30    4.39402025376619E-31     -1.7418880177177767E-31  9.601105126435227E-32    -4.956955663246523E-32   1.191139097072844E-33    -1.1003852689032235E-32  2.0115976474254005E-32
8.9E-5                    -3.2237945346686908E-31  -1.802241600939621E-30   -2.6936283763652644E-30  9.399402101315104E-31    8.363635033929702E-32    -2.3258775873399595E-31  5.253930700947533E-32    -6.324023750402877E-32   1.5027669140282875E-32   -1.0922023129284333E-32  -1.7101257009392042E-33
8.999999999999999E-5      -1.2867316745019205E-30  -2.2250826912531808E-30  -2.6600696394575715E-30  -2.291195382722738E-30   -4.181969560579976E-31   -1.680803444262188E-31   -5.669655764142437E-32   -4.0024155805375757E-32  2.279421775441479E-32    -8.322661491629896E-33   -2.397485773427008E-32
9.099999999999999E-5      -2.4679586014245653E-30  -2.4829868990397284E-30  -2.3747468139627708E-30  -4.840566757397664E-30   -7.954955976080507E-31   -6.15680142605749E-32    -1.3773251203575133E-31  2.730979049746955E-32    5.046649117972601E-33    -2.89143639280534E-33    -2.335549989316144E-32
9.2E-5                    -3.415940990397004E-30   -2.741168022443053E-30   -1.8585624633573287E-30  -5.9438639952282484E-30  -8.275303569802865E-31   -3.088181556233934E-33   -1.061720746526865E-31   1.105459624547765E-31    -3.047582379508487E-32   1.1109423008023341E-32   1.8768723283770723E-34
9.3E-5                    -3.730062362164959E-30   -3.1866063956221495E-30  -1.0701981693253901E-30  -5.61960609569297E-30    -4.846541718405305E-31   -1.2965928050665813E-32  2.3774483801190683E-32   1.4692683702709835E-31   -5.015709470421526E-32   2.962541052180281E-32    2.3860329371697794E-32
9.4E-5                    -3.3193280264230804E-30  -3.866665125632223E-30   -7.20097376802628E-32    -4.5260705727328994E-30  4.6904242720808333E-32   -3.009660397813835E-32   1.5132332789935416E-31   8.229948582495466E-32    -2.921930078816639E-32   3.12856243039965E-32     2.6148691895295705E-32
9.499999999999999E-5      -2.472986790935495E-30   -4.463112881482319E-30   7.8470178970794906E-31   -3.5139900115688266E-30  4.8250385486760636E-31   3.47490731575305E-32     1.7090853253091046E-31   -7.090140510524561E-32   2.1404787771501605E-32   -1.751875204894896E-33   7.117870864447292E-33
9.6E-5                    -1.6738719131645403E-30  -4.394374613226944E-30   9.147397931320413E-31    -2.939538146490599E-30   6.339041608518462E-31    2.168722080834374E-31    3.7766135112603194E-32   -2.1973414658051047E-31  6.440975761670708E-32    -5.271239918325785E-32   -1.5373837153599387E-32
9.7E-5                    -1.276773111167939E-30   -3.3503363260869606E-30  -1.3023196084682755E-31  -2.2459003906961595E-30  5.408874216362497E-31    4.335091293313317E-31    -2.0386433306002525E-31  -2.501896483527344E-31   6.711773649839674E-32    -7.219632367012882E-32   -2.5275971897782496E-32