% Model:              Untitled.mph
% Version:            COMSOL 6.0.0.405
% Date:               Jul 17 2025, 07:26
% Dimension:          1
% Nodes:              401
% Expressions:        11
% Description:        Point graph
% Time (s)                Displacement field, Y component Displacement field, Y component Displacement field, Y component Displacement field, Y component Displacement field, Y component Displacement field, Y component Displacement field, Y component Displacement field, Y component Displacement field, Y component Displacement field, Y component Displacement field, Y component
0                         -8.77628960533831E-34    -6.95706692326078E-34    -1.2739613040526114E-34  -2.416423964350264E-35   -5.911428140540654E-35   -1.0900254742448736E-35  -4.356254091070622E-36   -7.752897836431033E-37   1.8355749539262102E-31   5.344070767751012E-31    3.3951446282870572E-31
5.0E-7                    1.5405583298377443E-24   1.4163269019607901E-24   1.6568138740543265E-25   1.9506788712191856E-25   3.3816983255363596E-26   2.8102601358921E-27      5.986178600760667E-28    1.349073021282983E-28    1.1649873330798163E-21   7.889769056668307E-22    1.5902592827195537E-22
1.0E-6                    -4.103193993894318E-23   -1.1608430818012416E-24  8.557358575371463E-25    3.648326752819632E-25    -6.912625367885924E-26   3.29583181819192E-28     -7.672848895468032E-28   -3.347075722120026E-28   -6.906086558713283E-21   -6.873127012701576E-21   -2.4822839520795644E-21
1.5E-6                    3.0864470299807196E-22   -1.535464087011472E-23   -9.098474462783962E-24   -8.066910837259369E-24   -9.152986296926963E-25   -7.071134849286085E-26   1.5862602651259558E-27   -3.3261874041761767E-28  2.928868826568218E-20    3.540955781719506E-20    1.3597590184306423E-20
2.0E-6                    -5.964292429170878E-22   3.1726358637007144E-23   2.939438931943683E-23    6.4643536577501494E-24   2.290704775364106E-24    1.050745541246222E-25    3.67339645566036E-27     9.378325081668097E-27    -4.7300717426927407E-20  -1.100463263806389E-19   -2.1548478106508662E-20
2.4999999999999998E-6     -1.6689379362615962E-21  -7.859397237567153E-25   -1.104902907883706E-23   8.500184081710026E-23    1.3504882626590272E-23   6.84752893747784E-25     -8.382127639163207E-26   -3.071577031691651E-26   -5.97192789823034E-20    8.90676348806202E-20     -6.356454828248954E-20
3.0E-6                    5.574905069443017E-21    4.595207686268804E-23    -1.7316906714834943E-22  -5.743352757956308E-23   -3.3440147312277663E-23  -9.4593704268647E-25     2.631884580370905E-25    -1.6383474276798462E-26  2.2257904893838334E-19   7.053896095712675E-19    1.9005655693481068E-19
3.5E-6                    8.525302871095044E-21    -2.144764514815373E-22   7.192486041224282E-22    -4.846926611574799E-22   -1.1965997470635515E-22  -3.988790155400787E-24   3.257219470812012E-25    2.585801572021003E-25    -3.2397320097038083E-19  -1.7533490924959742E-18  2.0939574599940386E-19
4.0E-6                    -2.154709664067372E-20   -3.81488627749504E-22    -1.549979026932827E-22   4.510291810937094E-22    3.149789712493909E-22    5.0814918802300996E-24   -2.645719048269388E-24   -1.8613160422716285E-25  3.8139817288531247E-19   -1.6380463675113732E-18  -5.934112406429358E-19
4.5E-6                    -4.7501187888741205E-20  6.84381300852357E-21     -7.267320182986976E-21   2.4683320111428066E-21   8.999262004861556E-22    8.860780298334998E-24    4.684733011012467E-25    -1.331379274398107E-24   3.0484390223837883E-19   7.740700247262065E-18    -1.0845096277850403E-18
4.9999999999999996E-6     3.0825980300255875E-20   -1.4603504488404164E-21  4.43584421112015E-21     -2.5981530091391244E-21  -2.0537775362266884E-21  -1.6393152421564226E-23  1.5040878344172547E-23   1.906579476179265E-24    -6.992925147042875E-18   9.311442508208639E-19    3.217744977467846E-19
5.5E-6                    1.9316423847150125E-19   -8.133737263894093E-20   4.148288362653602E-20    -1.4692250966163317E-20  -6.5203595262605354E-21  6.743035919001285E-23    -1.3357267140707423E-23  5.194074703290281E-24    9.876279207691761E-18    -1.718926009159483E-17   6.566597685798899E-18
6.0E-6                    6.363413649448302E-20    -1.208855806300702E-19   -1.834460430923151E-20   2.1235229040489E-21      9.103752402602922E-21    1.2229702024629255E-22   -5.586715115520678E-23   -1.0493918033690301E-23  4.853247093135267E-17    6.760615008294264E-18    8.94395679841696E-18
6.5E-6                    -6.504569427088769E-19   1.3182943113299255E-19   -2.1887021354448517E-19  7.231643509825228E-20    4.1316631424870494E-20   -8.106764497508096E-22   8.740826627676218E-23    -1.9257331935350033E-23  -2.5561389652718268E-17  8.566402420877814E-18    -2.350672022501902E-17
7.0E-6                    -7.984833117583681E-19   4.61241728732384E-19     -1.6181124522940766E-19  7.794139301363183E-20    -2.0456255664066E-20     -1.8127537677430976E-21  1.3772932980660893E-22   4.541217808322893E-23    -1.659668779706697E-16   -4.059250260132891E-17   -5.848908904396604E-17
7.499999999999999E-6      1.6398375585295304E-18   -8.967241877218007E-20   6.882334556237447E-19    -1.9487022874224972E-19  -2.171122531661325E-19   3.1518988050333683E-21   -4.485947956799863E-22   8.28582388840186E-23     -2.7653741997877712E-17  9.809300129415188E-17    3.7597592577335744E-17
8.0E-6                    5.564956367770704E-18    -2.24892147525702E-18    1.4742394347530039E-18   -5.879035008996871E-19   -8.99110283636094E-20    1.5159009935100713E-20   -3.190708648945851E-22   -1.737342794661262E-22   2.655161715125141E-16    2.242966662993404E-16    2.116889144257631E-16
8.5E-6                    4.168154668169837E-18    -2.623008246785938E-18   -1.658522550817286E-18   -1.8178811392567641E-19  8.391506265637774E-19    6.515267606171026E-21    2.2740202101948447E-21   -4.1371727484560253E-22  1.7925098361184176E-16   -3.6818890355265286E-16  7.885248855909645E-17
9.0E-6                    -1.3018503234248545E-17  9.110006576645541E-18    -1.0075466922671964E-17  1.7524046706762646E-18   1.18791640794871E-18     -6.551058516357743E-20   2.404209793912946E-21    5.547408123706431E-22    2.3983415464917534E-17   -8.394001015200183E-16   -4.1766786419071685E-16
9.499999999999999E-6      -5.045146671220577E-17   2.713693337446725E-17    -8.791877135133508E-18   3.2381493538695973E-18   -1.9540405853876345E-18  -1.377114067565311E-19   -9.542645357005246E-21   2.1098314459383127E-21   1.1493421464719328E-16   7.001931800761603E-16    -4.905055790388911E-16
9.999999999999999E-6      -8.027558415063044E-17   -1.432892072790373E-17   2.1871038591569024E-17   -8.474780133720265E-19   -6.676643444621399E-18   6.283870232669294E-20    -2.304783226610409E-20   -9.46871548080031E-22    -4.124801346899695E-16   2.3196728708767802E-15   4.570552336453778E-16
1.05E-5                   -2.6323760111852418E-17  -1.842418663681072E-16   4.562533559683919E-17    -1.1465139813518295E-17  -1.58797861040773E-18    6.69401047195534E-19     1.4907107087097376E-20   -9.744069662521025E-21   -5.204964572644283E-17   -2.3315122269153797E-16  1.4737683490847438E-15
1.1E-5                    1.562463698295749E-16    -3.271354164992878E-16   -3.888626840006968E-17   -1.5303047555522742E-17  1.9896888512593238E-17   8.40966567433647E-19     1.2764079292769504E-19   -4.6122481889860356E-21  4.738153470325458E-15    -3.0362720941720368E-15  1.0575389841601745E-15
1.15E-5                   3.0195673842947095E-16   -3.1768607572300272E-18  -2.2919705089870963E-16  6.16933538682585E-18     3.0855922532736376E-17   -1.1037682008306414E-18  1.108995486366243E-19    3.5300724141530725E-20   7.165602828034574E-15    3.2587294051756727E-15   -1.4546085231619538E-16
1.2E-5                    -2.1006923597399906E-17  9.170618349933641E-16    -2.530477230258859E-16   4.2600235998071667E-17   -2.0664949074800904E-17  -4.794263229462702E-18   -3.9953226256748336E-19  5.40195445673499E-20     -7.442384464312E-15      1.120120988315116E-14    3.5254399111865385E-16
1.2499999999999999E-5     -1.1643916142501006E-15  1.406869249837316E-15    1.8112020352764108E-16   4.3415875608144084E-17   -1.2225421135345984E-16  -4.309438006199474E-18   -1.0361427455656352E-18  -7.877757904179432E-20   -2.2958312833984458E-14  -7.455343980188969E-16   2.0459005708828776E-15
1.3E-5                    -2.667800357218964E-15   -2.7842973983622845E-16  8.06771921213627E-16     -2.802743289850684E-17   -1.1689706835040482E-16  8.004192207351126E-18    3.269599506351978E-20    -2.912194364043163E-19   1.8196425952533997E-14   -1.89029051220681E-14    9.38852453907464E-16
1.35E-5                   -2.7797066888308878E-15  -4.103937549741101E-15   7.486968489229816E-16    -1.4167799099416847E-16  1.563661430376785E-16    2.6050050611839553E-17   3.746910100296996E-18    -5.735475392443292E-20   1.2298530424041095E-13   1.723397504255202E-14    1.1319509655722093E-15
1.4E-5                    2.7346571441817837E-16   -6.1478669403387195E-15  -5.561239429795741E-16   -2.401364672366828E-16   5.045622756480179E-16    1.90747290413775E-17     5.081621258682549E-18    9.338660074046806E-19    1.6078796497467804E-13   1.1307955754384049E-13   2.032196265211608E-14
1.45E-5                   4.4089832751122134E-15   -1.6048937059716878E-15  -2.571177215330065E-15   -2.6400168234602613E-16  3.13978573975727E-16     -4.2031830648518414E-17  -5.413918902272635E-18   1.315519565813442E-18    5.153330132523231E-15    1.4000371252438444E-13   6.223142678716413E-14
1.4999999999999999E-5     1.1319121164398495E-15   6.85754216815907E-15     -4.364583109735388E-15   -1.480036378419104E-17   -7.355118647992508E-16   -1.2163786148291646E-16  -2.4632588218952824E-17  -1.388900226480467E-18   -1.599779970168875E-13   7.565114332292388E-15    8.92102147892248E-14
1.55E-5                   -1.7879660408359045E-14  5.822306269235522E-15    -5.7610711949899556E-15  8.106806454843493E-16    -1.7732642100285926E-15  -9.762064135491136E-17   -2.071770169343967E-17   -5.8743505313958424E-18  1.527647621433016E-13    -4.1505502600818617E-14  7.811041768353611E-14
1.6E-5                    -4.7818253937864825E-14  -1.537247540897757E-14   -6.35973587887986E-15    1.8295916349700216E-15   -1.1550384373758053E-15  1.2684800267443807E-16   3.93765881420699E-17     -3.542128931379163E-18   1.1473963233223966E-12   4.549248418099591E-13    1.3019734383478692E-13
1.6499999999999998E-5     -7.402539241572502E-14   -4.573790881436982E-14   -3.9439339293216674E-15  1.032733927438252E-15    1.5475435707383944E-15   4.284023841967697E-16    1.111256904527287E-16    1.1862030532026795E-17   2.199522775091849E-12    1.5088767604942525E-12   4.354416863613377E-13
1.7E-5                    -1.0436590272665268E-13  -6.318958295671461E-14   4.137940336172846E-16    -4.057288053538893E-15   4.177020852504714E-15    4.188794503994682E-16    4.717069242509024E-17    2.4574170938092923E-17   2.373786538909497E-12    2.3263038911114727E-12   1.0229905044440926E-12
1.75E-5                   -1.9243662367369526E-13  -8.021230848796845E-14   -1.0500203660825119E-14  -1.2240552638111058E-14  3.324529251565741E-15    -2.53265386835997E-16    -2.317317781759139E-16   -6.485740111585649E-20   1.9442053371769435E-12   2.245240780654986E-12    1.646614821544174E-12
1.8E-5                    -3.985946642203924E-13   -1.6130142241156548E-13  -7.111721097857792E-14   -1.5873239758263657E-14  -2.87262653359783E-15    -1.3878143168668251E-15  -4.681449499952129E-16   -6.385251456110669E-17   3.2549994601626673E-12   2.317827042902449E-12    2.1950012135763996E-12
1.85E-5                   -7.27974587525063E-13    -3.5600485021967645E-13  -1.9902627836098284E-13  -6.788803423038397E-15   -1.3263310990716081E-14  -1.986445425803435E-15   -1.5488801889332658E-16  -8.66001440805907E-17    9.363113342834145E-12    5.367852697672558E-12    3.327931105777105E-12
1.8999999999999998E-5     -1.1776385154926267E-12  -6.265454100414048E-13   -3.504975875653447E-13   9.388906078016382E-15    -2.3504806804136323E-14  -7.865990922067015E-16   7.614643165606376E-16    2.9083793256146946E-17   2.1244874618195895E-11   1.3591071520904022E-11   6.452368621384932E-12
1.95E-5                   -1.9285772499022112E-12  -9.337438878391366E-13   -4.5073404784207824E-13  5.655737139229254E-15    -2.6106990299451247E-14  2.361811627324422E-15    1.266601106961955E-15    2.1953431774043677E-16   3.6401962435098424E-11   2.597025488493759E-11    1.2700745216787583E-11
1.9999999999999998E-5     -3.4941655296934273E-12  -1.471880398695489E-12   -5.399753093748172E-13   -4.988504901612731E-14   -1.497192945077751E-14   5.100692486534145E-15    -1.1496696356729054E-17  2.0407179412265294E-16   5.0654079987220063E-11   3.871953408922524E-11    2.1792556835848068E-11
2.05E-5                   -6.6141950254621995E-12  -2.7679298902131325E-12  -9.056015645103816E-13   -1.6147069843454953E-13  8.735641708749538E-17    2.8637619719247447E-15   -2.9011752803254304E-15  -2.1712346200190576E-16  6.147619211101174E-11    4.867353425960671E-11    3.197994232373977E-11
2.1E-5                    -1.1960665741147115E-11  -5.409387886271944E-12   -1.984304937918292E-12   -2.9644524625450417E-13  -2.0747797936916843E-14  -7.764324175278869E-15   -4.889433237277136E-15   -7.414910485517588E-16   6.935601338159071E-11    5.585547632551777E-11    4.120173917612257E-11
2.1499999999999997E-5     -1.991393712597399E-11   -9.597389855677955E-12   -4.033870104361944E-12   -4.2815081908542544E-13  -1.3250240898634032E-13  -2.413910308057422E-14   -3.3763460766626183E-15  -6.662080359035542E-16   7.578696181460592E-11    6.232163476629306E-11    4.835578220070995E-11
2.2E-5                    -3.0472868040749754E-11  -1.4994965584146142E-11  -6.900052291368472E-12   -6.015229423484405E-13   -3.528496192210899E-13   -3.658027898031716E-14   5.609807703980562E-16    2.6478273958057497E-16   8.033507174001748E-11    6.880983788526041E-11    5.353985452757214E-11
2.2499999999999998E-5     -4.3108817765517945E-11  -2.1019952545346788E-11  -1.0160770873233288E-11  -9.577928431349396E-13   -6.259262825909339E-13   -3.657407459891053E-14   8.685148125862987E-16    1.1143522953675564E-15   8.013340037110536E-11    7.303763857432183E-11    5.7122645359484675E-11
2.3E-5                    -5.6529285515461307E-11  -2.7196685930178098E-11  -1.3469042240514744E-11  -1.7022518231978493E-12  -8.866022196706955E-13   -3.113002835605613E-14   -1.0340213492339482E-14  2.582454457419386E-16    7.20800501557937E-11     7.114925159599632E-11    5.858147665296384E-11
2.35E-5                   -6.865518750230255E-11   -3.3157204866682804E-11  -1.6655895879333303E-11  -3.060777063990544E-12   -1.2153209858619783E-12  -5.000008465515104E-14   -3.7110805194657007E-14  -2.9534345315869573E-15  5.4904587229457334E-11   6.034774889924188E-11    5.6256479368146656E-11
2.4E-5                    -7.701715082777328E-11   -3.838459381859078E-11   -1.9517252853510732E-11  -5.237330330815849E-12   -1.910985914570342E-12   -1.3398231341215507E-13  -7.557547404572899E-14   -7.072855851002262E-15   2.893516039584771E-11    4.022077244172961E-11    4.825752293191899E-11
2.45E-5                   -7.930266671576477E-11   -4.20809425299748E-11    -2.1686440941631243E-11  -8.310342490318768E-12   -3.3043510881890253E-12  -3.106574671403026E-13   -1.1689499490481787E-13  -9.732399925474105E-15   -5.53633464058577E-12    1.2139616073748183E-11   3.3532716546061236E-11
2.4999999999999998E-5     -7.366983104605849E-11   -4.325925541093006E-11   -2.2849588188329207E-11  -1.20679706532066E-11    -5.407530546468756E-12   -5.829176967670877E-13   -1.6184950296818973E-13  -1.1068589522603459E-14  -4.919127646687229E-11   -2.2458572112769613E-11  1.1960262882281668E-11
2.55E-5                   -5.886580158851159E-11   -4.0856099123500675E-11  -2.2989729092734538E-11  -1.595401711363034E-11   -7.774036781413349E-12   -9.526346152991572E-13   -2.4190583993897535E-13  -1.6885481562657916E-14  -1.0343097028508319E-10  -6.381396760195394E-11   -1.650318604623444E-11
2.6E-5                    -3.441444325489268E-11   -3.384193137257719E-11   -2.2216203108610308E-11  -1.9280023689953075E-11  -9.796986135630236E-12   -1.4714958430525607E-12  -4.2607908092665257E-13  -3.7910766875032265E-14  -1.6981200167092184E-10  -1.1441557589435015E-10  -5.258495251973489E-11
2.65E-5                   -7.610114380169552E-13   -2.1528406098121447E-11  -2.0274894705410682E-11  -2.1550526600477448E-11  -1.1156356727514879E-11  -2.2727699298821563E-12  -7.959928822236412E-13   -8.387188284793735E-14   -2.494670544312475E-10   -1.7754286574297857E-10  -9.764987281750291E-11
2.7E-5                    4.1030245260477086E-11   -3.943657986290541E-12   -1.630182546817009E-11   -2.254720268677492E-11   -1.1897521233554003E-11  -3.524567904061833E-12   -1.4063401089891701E-12  -1.5724674643620313E-13  -3.421741473472643E-10   -2.5456120918580407E-10  -1.5297263988290885E-10
2.7499999999999998E-5     8.999805162366085E-11    1.8272551818431983E-11   -9.150308659552722E-12   -2.2104505906938517E-11  -1.2087375754958291E-11  -5.288858367487461E-12   -2.276880433949079E-12   -2.562584239919089E-13   -4.4554593619368114E-10  -3.433866994260248E-10   -2.1875419543082926E-10
2.8E-5                    1.4582402858155253E-10   4.4623543790720326E-11   2.0129510502442744E-12   -1.9954072195086723E-11  -1.1577715147547933E-11  -7.368712997114104E-12   -3.430654897071948E-12   -3.922868753256369E-13   -5.553656329793455E-10   -4.3966026254226215E-10  -2.933716075815126E-10
2.8499999999999998E-5     2.087687520270881E-10    7.545945775373671E-11    1.7422858180148423E-11   -1.592520136475019E-11   -1.0234539102431972E-11  -9.298665261962439E-12   -4.9181307779319055E-12  -6.132131948004531E-13   -6.668129013650548E-10   -5.391691102010743E-10   -3.735521766911513E-10
2.9E-5                    2.7921067309032E-10      1.118246869757507E-10    3.693857710150953E-11    -1.0189131063106898E-11  -8.229626288951445E-12   -1.0558822689704969E-11  -6.746442684578105E-12   -1.0125817756105566E-12  -7.749788593896615E-10   -6.385986438693796E-10   -4.556469710364824E-10
2.95E-5                   3.57105578507397E-10     1.5455275937201E-10      6.03948852834901E-11     -2.9986561359303976E-12  -5.775517586620059E-12   -1.087403902555866E-11   -8.726662759274366E-12   -1.7076523747332943E-12  -8.740300479548004E-10   -7.33904344741539E-10    -5.368140734790452E-10
2.9999999999999997E-5     4.4134500294996583E-10   2.034308847450346E-10    8.762154427809161E-11    6.016373958440999E-12    -2.478832755968104E-12   -1.0314163998157072E-11  -1.0380761207411793E-11  -2.7897870991069276E-12  -9.564511463505903E-10   -8.187302093707478E-10   -6.146341477737177E-10
3.05E-5                   5.290871988261072E-10    2.569736159819407E-10    1.181608489599961E-10    1.8218552775040172E-11   2.7826432672595643E-12   -9.066942895324383E-12   -1.1062926841210957E-11  -4.276621813133357E-12   -1.013836966541171E-9    -8.852194529900268E-10   -6.855186719498265E-10
3.1E-5                    6.15577116532641E-10     3.1268850994614994E-10   1.5111388105440614E-10   3.539828926512644E-11    1.1053138393577858E-11   -7.104241818621253E-12   -1.0293365416494926E-11  -6.1037671105754875E-12  -1.0385450308808244E-9   -9.263546525984986E-10   -7.439228191543454E-10
3.15E-5                   6.947307292563961E-10    3.6750782372447626E-10   1.8532992802871227E-10   5.861093800234087E-11    2.236197929887016E-11    -4.098963427303595E-12   -8.090326477065203E-12   -8.163626016453899E-12   -1.0242709860000564E-9   -9.369261917441086E-10   -7.833315325398026E-10
3.2E-5                    7.598949589349424E-10    4.182036881135006E-10    2.1967913277094908E-10   8.732655208584642E-11    3.5743350473623455E-11   3.2831132034020045E-13   -5.005338805850858E-12   -1.0345591242636803E-11  -9.649654019121713E-10   -9.120430107774936E-10   -7.976582113498592E-10
3.25E-5                   8.041162794428289E-10    4.617128286138366E-10    2.531004747478019E-10    1.1944125769162393E-10   5.020586221243003E-11    6.324842355774591E-12    -1.7265225851754753E-12  -1.2517310064625765E-11  -8.534525932730889E-10   -8.452144793684162E-10   -7.813914355974185E-10
3.2999999999999996E-5     8.202748044414417E-10    4.953582607420206E-10    2.844670863229185E-10    1.5200705687711102E-10   6.554839736704225E-11    1.3777682864652324E-11   1.5509046485987066E-12   -1.4453263320847432E-11  -6.811969183341577E-10   -7.282854137815284E-10   -7.287242789778619E-10
3.35E-5                   8.018739962889802E-10    5.169441684578056E-10    3.1245329283211656E-10   1.8227493564876147E-10   8.21596070858234E-11     2.249336469836448E-11    5.51757005612007E-12     -1.5803054502314282E-11  -4.393380346118573E-10   -5.529287821543884E-10   -6.331134630989556E-10
3.4E-5                    7.441119160565214E-10    5.245039306696188E-10    3.35377392831584E-10     2.0869756537377386E-10   1.0011336406073196E-10   3.232161151936016E-11    1.1502854818849093E-11   -1.6175111155569788E-11  -1.2029682083290048E-10  -3.1188729114388586E-10  -4.878703494983648E-10
3.45E-5                   6.437883595758772E-10    5.154598983943993E-10    3.509328278516414E-10    2.3140326529448588E-10   1.1855949992923764E-10   4.312514744407329E-11    2.0639018079895845E-11   -1.527618260659055E-11   2.8063677123900666E-10   4.642603263824291E-13    -2.871798068608167E-10
3.5E-5                    4.976226518268627E-10    4.855481262863258E-10    3.560271069783889E-10    2.5155084013503283E-10   1.3598603667422085E-10   5.474214689989962E-11    3.300473640394495E-11    -1.2948205662228622E-11  7.640990242860677E-10    3.8714875069940945E-10   -2.69575381683392E-11
3.5499999999999996E-5     3.0065775059566473E-10   4.2852775219788524E-10   3.47105189003846E-10     2.696127478672139E-10    1.510161391969511E-10    6.703857921898668E-11    4.74013032826159E-11     -9.028226846766234E-12   1.3260176408016395E-9    8.470633170397599E-10    2.944833769098131E-10
3.6E-5                    4.671675521057895E-11    3.3736869865054364E-10   3.208978996081504E-10    2.8379788802188773E-10   1.6290224851245918E-10   7.991658669138479E-11    6.191986117919093E-11    -3.1522869653231427E-12  1.957309266360981E-9     1.3742928953190121E-9    6.759871785784318E-10
3.65E-5                   -2.692465160557947E-10   2.0637585396127367E-10   2.7495863211518354E-10   2.901035927797807E-10    1.7119032710875917E-10   9.312288122435563E-11    7.483528907140461E-11    5.293325924490332E-12    2.643468189066014E-9     1.958784587683419E-9     1.1135097743409781E-9
3.7E-5                    -6.48922141572408E-10    3.287242072089121E-11    2.0747507291951792E-10   2.8409264475731E-10      1.748968917619442E-10    1.0594897266378754E-10   8.521992974285987E-11    1.6997129587202634E-11   3.3641271037920056E-9    2.58685172981165E-9      1.600172009240765E-9
3.75E-5                   -1.0898952824828901E-9   -1.825628097722342E-10   1.1667007429246087E-10   2.627668989777185E-10    1.7215650620966158E-10   1.1709604878449502E-10   9.305889837918265E-11    3.2435788147656946E-11   4.093200027505144E-9     3.240258900972945E-9     2.1256868434477855E-9
3.7999999999999995E-5     -1.5856986451372794E-9   -4.372188279366479E-10   6.324804616141513E-13    2.2492443141345345E-10   1.608780424274371E-10    1.248707020927706E-10    9.901857892548986E-11    5.164198464854039E-11    4.799810658686612E-9     3.895039502656644E-9     2.6751914931955124E-9
3.85E-5                   -2.1253599901996483E-9   -7.27694354442734E-10    -1.4206994127667596E-10  1.701644118772863E-10    1.3979586771444468E-10   1.2763567576131134E-10   1.0398769682557138E-10   7.41072335118873E-11     5.449386122272465E-9     4.521943325915668E-9     3.228731598108684E-9
3.9E-5                    -2.692445654115993E-9    -1.0503181809104685E-9   -3.115492048282228E-10   9.80326240266295E-11     1.0878772803943472E-10   1.242806761505722E-10    1.0837640654051504E-10   9.882077059754937E-11    6.004292784179162E-9     5.088347122591184E-9     3.7623645687354684E-9
3.95E-5                   -3.264797062661237E-9    -1.3999007419779438E-9   -5.062526932359245E-10   8.143089116196621E-12    6.818668840964229E-11    1.1443543587315542E-10   1.1137362668711706E-10   1.2444413341479643E-10   6.4241988690495376E-9    5.559770937081624E-9     4.250015419322798E-9
3.9999999999999996E-5     -3.8156633542052285E-9   -1.7676432393530168E-9   -7.231148220519576E-10   -9.942023987552452E-11   1.7968455447583963E-11   9.823084027235511E-11    1.1071669094128718E-10   1.4960642342152943E-10   6.666840435525987E-9     5.900118755237851E-9     4.664269192690895E-9
4.0499999999999995E-5     -4.315538158178257E-9    -2.14003405782601E-9     -9.575885693311416E-10   -2.2440448349507181E-10  -4.233251999849522E-11   7.570095959890659E-11    1.0336995961326294E-10   1.731962516389342E-10    6.689560689437555E-9     6.071630843017386E-9     4.9756916901902545E-9
4.1E-5                    -4.7334623097883585E-9   -2.499857365187775E-9    -1.2032381602527466E-9   -3.671181758565825E-10   -1.1313993970690628E-10  4.628252462824961E-11    8.677338942051761E-11    1.9442538187028984E-10   6.451467537582986E-9     6.035823366618356E-9     5.152233003062676E-9
4.15E-5                   -5.037390835672257E-9    -2.8285448573830086E-9   -1.4513586057678386E-9   -5.282868024980924E-10   -1.9447215978319708E-10  8.906840764859715E-12    5.979038222896847E-11    2.1253367284191437E-10   5.915804144414872E-9     5.755634769733498E-9     5.160287628709838E-9
4.2E-5                    -5.19440836632254E-9     -3.1079714982388316E-9   -1.6913089883835535E-9   -7.074123624694578E-10   -2.8587348011407023E-10  -3.7292515172085374E-11  2.2785300618168923E-11   2.2629524922940769E-10   5.0521070235642495E-9    5.19814278039298E-9      4.967294296379091E-9
4.2499999999999996E-5     -5.171765046767534E-9    -3.320517866808536E-9    -1.9115615307546062E-9   -9.007572904353574E-10   -3.862599773928906E-10   -9.219852269615757E-11   -2.2977112108633163E-11  2.337096395775156E-10    3.837962973092471E-9     4.3370756069306365E-9    4.5445339124566E-9
4.2999999999999995E-5     -4.938706261603094E-9    -3.447886807674998E-9    -2.100650023317053E-9    -1.1007926556156608E-9   -4.935312458088208E-10   -1.5445765145490244E-10  -7.603460740447229E-11   2.3216336218396002E-10   2.260761128625897E-9     3.154723812922404E-9     3.869068944741564E-9
4.35E-5                   -4.46821787144598E-9     -3.470173604865074E-9    -2.2472179110527685E-9   -1.2976047488883555E-9   -6.043224323089026E-10   -2.2185442477921624E-10  -1.3516839445967616E-10  2.189814988761588E-10    3.202206987291328E-10    1.6435517285306512E-9    2.9248123934638983E-9
4.4E-5                    -3.7383487699768465E-9   -3.366381756937104E-9    -2.339259832500789E-9    -1.4807830692909765E-9   -7.142319993073402E-10   -2.918994528999769E-10   -1.9952951846703243E-10  1.919808609724313E-10    -1.968169567460343E-9    -1.919001900552602E-10   1.703495556342491E-9
4.45E-5                   -2.7338648869607515E-9   -3.116399811341402E-9    -2.3634889538988883E-9   -1.6400840103674699E-9   -8.183385338791416E-10   -3.621884643860268E-10   -2.68454014537487E-10    1.4965412397086737E-10   -4.570013557175806E-9    -2.3329273653337325E-9   2.062905216836575E-10
4.4999999999999996E-5     -1.4486544824921058E-9   -2.7033651650002633E-9   -2.3056822930065326E-9   -1.7649367694395223E-9   -9.115450816018997E-10   -4.3046711359435155E-10  -3.409666920961089E-10   9.093051689721435E-11    -7.4308446380668325E-9   -4.745228247555473E-9    -1.5539974275778675E-9
4.5499999999999995E-5     1.1228219885740135E-10   -2.1152302833450183E-9   -2.1519849937138283E-9   -1.8442879311515586E-9   -9.885528714028349E-10   -4.946291428296807E-10   -4.1515168721049364E-10  1.4813232099266136E-11   -1.0477311021460217E-8   -7.378398017324833E-9    -3.551143860163599E-9
4.6E-5                    1.932609629400061E-9     -1.3453369354139465E-9   -1.89042864787962E-9     -1.8675485764037836E-9   -1.0436751857571927E-9   -5.527678948159307E-10   -4.877604977363965E-10   -7.968736022155235E-11   -1.3619316278338214E-8   -1.0165579276454641E-8   -5.744948526160738E-9
4.65E-5                   3.9853124294495324E-9    -3.9286330606209646E-10  -1.5120461216621887E-9   -1.8257035227853994E-9   -1.0708249023005391E-9   -6.03103515474783E-10    -5.543440686843155E-10   -1.9312882497462664E-10  -1.6751502404199077E-8   -1.3022991278144762E-8   -8.081669082401433E-9
4.7E-5                    6.2316050441746325E-9    7.360778465380384E-10    -1.0116413909347135E-9   -1.7113554330407565E-9   -1.063824117810931E-9    -6.435882876427959E-10   -6.098693066128686E-10   -3.249409399994528E-10   -1.9754007413810953E-8   -1.5850601791947896E-8   -1.0494661345967884E-8
4.7499999999999996E-5     8.617232666789286E-9     2.0269944516706828E-9    -3.885509824745786E-10   -1.5178185607364102E-9   -1.0169227061163274E-9   -6.713587530286118E-10   -6.494923061048182E-10   -4.729463952898957E-10   -2.2493943742003748E-8   -1.8535119995132438E-8   -1.2905042127529873E-8
4.8E-5                    1.1068958915559696E-8    3.4561927370443146E-9    3.5273048769443406E-10   -1.2384338481944763E-9   -9.252717948153593E-10   -6.825096419573262E-10   -6.690878340720166E-10   -6.334300788378091E-10   -2.4828972293566447E-8   -2.0954418973186694E-8   -1.5222871858161612E-8
4.85E-5                   1.3495075573314515E-8    4.990991835214901E-9     1.202572630694297E-9     -8.669555838610392E-10   -7.851648960343485E-10   -6.724735605806056E-10   -6.652846674892841E-10   -8.016139325950217E-10   -2.6613028772460432E-8   -2.2981478777069504E-8   -1.734918901548094E-8