% Model:              Untitled.mph
% Version:            COMSOL 6.0.0.405
% Date:               Jul 17 2025, 05:31
% Dimension:          1
% Nodes:              401
% Expressions:        11
% Description:        Point graph
% Time (s)                Displacement field, Y component Displacement field, Y component Displacement field, Y component Displacement field, Y component Displacement field, Y component Displacement field, Y component Displacement field, Y component Displacement field, Y component Displacement field, Y component Displacement field, Y component Displacement field, Y component
0                         4.4361553223746044E-37   6.758288782788622E-35    6.712854578543205E-34    3.08625292793545E-33     1.0167744351533994E-33   1.1078466087568921E-32   -4.1992674212776865E-36  -2.3946457612579345E-35  -2.3803872111683163E-32  -1.2719842397933857E-33  2.600787695417979E-33
5.0E-7                    9.8724591733667E-27      -2.887838723248255E-26   -7.25350605515119E-26    -8.997189209787111E-25   -9.612943122767634E-26   8.104189196895974E-24    -6.273627310395937E-27   -2.777378441069861E-26   3.1128673233210305E-24   2.682486079280531E-26    7.544193636196031E-25
1.0E-6                    -1.4766381413400085E-25  9.369390639767278E-26    1.5355124511994948E-25   2.377184592978179E-24    4.1193724887615894E-25   9.238226045444902E-24    6.375426324081229E-26    1.832038598062178E-25    -3.050444837372393E-25   -4.342426942444779E-24   -7.841450607976421E-24
1.5E-6                    6.09311273661151E-25     2.346843461086256E-25    -5.1772477237822425E-25  -1.4700745629665854E-24  3.896979133741787E-24    -7.321434639935568E-24   -2.0702614017548896E-25  -4.208183917918621E-25   -1.2064655728910544E-23  1.802459965380283E-23    -1.521867721881982E-23
2.0E-6                    -3.51919398378796E-25    -1.5317593715197453E-24  -7.877330459892936E-25   -2.8855503526374284E-23  -1.2305410050146998E-23  -1.944145347052452E-22   1.665413249450536E-25    8.737100081806532E-26    3.2389724384578826E-23   9.825186018309265E-23    2.2638875254673813E-22
2.4999999999999998E-6     -9.096073568262474E-25   -8.966421778286833E-25   1.2878076082103762E-23   9.548960889011032E-23    -4.1023440684221E-24     5.152088629084047E-22    2.1047385240903764E-25   2.4052217585975577E-24   -7.396581411707124E-22   -9.032291441303285E-22   -7.234652669968437E-22
3.0E-6                    -3.3459887914511414E-24  8.067598028809126E-24    -2.403612610958712E-23   1.332665018017154E-22    2.955299637194429E-23    4.256046345286409E-22    1.8457093825032298E-25   -4.8938441473839044E-24  4.635905111564661E-22    5.455217295946327E-22    -1.607829775307049E-22
3.5E-6                    -6.110683197137832E-25   1.2842891045949199E-23   -1.4145546157505946E-22  -1.2431033930142593E-21  -5.1329508341843654E-23  -3.9960454481582E-21     -1.1720928131444467E-25  -1.7779391497005932E-23  6.612860952612095E-21    5.6613430826967054E-21   3.7908689390041584E-21
4.0E-6                    5.325426461060202E-23    -1.3087157948827708E-23  3.4074551217802105E-22   -6.05255628333471E-23    3.2074406320288484E-22   8.240078367858227E-21    -3.3375804375985275E-24  4.225068646606484E-23    -7.299161899957143E-21   -1.3678948997844756E-20  -8.220213162611835E-21
4.5E-6                    3.585553707577076E-23    -9.071378257728062E-23   1.326144685081984E-21    9.938570609512705E-21    6.147766496923338E-21    5.820799999789602E-20    4.473617508987564E-24    1.5199699808153396E-22   -5.220907490672824E-20   -4.824913734566796E-20   -1.866973769905756E-20
4.9999999999999996E-6     -2.101329058068768E-22   -1.5388222868271532E-22  -2.1540963556501965E-21  -2.830232644036476E-21   7.25970017762425E-21     -1.1443554043171527E-21  -4.396246966604187E-23   -2.617619544506399E-22   -1.1667041538993498E-20  5.514189409767713E-20    3.439717718582936E-20
5.5E-6                    -6.076489495190565E-22   5.16570169880649E-22     -7.59235473439167E-21    -6.038871021630801E-20   -3.784072542423095E-20   -2.912598121699011E-19   1.6823737013615406E-23   -1.2515690360173915E-21  1.7670283774588593E-19   1.7264685889760106E-19   -2.634639407364578E-20
6.0E-6                    2.664161215458106E-22    2.531190745874312E-21    9.841058775670874E-21    1.2662497959113266E-20   -3.318712091029357E-20   -5.804920799316135E-20   7.572442474388765E-22    1.0083759224238403E-21   -4.298759191072964E-20   -8.491073379895231E-19   -5.526127449921762E-19
6.5E-6                    6.111060288618773E-21    1.6367706967802916E-21   5.191025245007875E-20    3.2264048899784106E-19   3.1675345474250073E-19   1.4443618749702239E-18   -3.724678581065199E-22   8.704499158206239E-21    -1.9675510373927644E-18  -2.8086289351091866E-18  -4.608272772782109E-19
7.0E-6                    7.862317708476337E-21    -8.741175597406354E-21   3.607877423921966E-20    1.093089741833224E-19    6.575164741889041E-19    1.4340264072340519E-18   -6.856438615982928E-21   -8.35564242032101E-22    -3.814750333451532E-18   -1.524363552098256E-19   1.4848008198617471E-18
7.499999999999999E-6      -2.4614538412076846E-20  -7.839077955083944E-21   -1.080690316288391E-19   -9.825605946046066E-19   -1.1404374772557845E-19  -4.0381235032354454E-18  1.3536566724582654E-21   -5.138691601791754E-20   1.0512241704872085E-18   3.3906535708817616E-18   -4.0777113667415114E-18
8.0E-6                    -5.947366229623289E-20   7.344520382419979E-20    -5.956549089473703E-20   1.7171497156291446E-19   2.708170013151903E-19    -7.022422732706365E-18   4.562887361873516E-20    -3.174702155789788E-20   -2.383642107979975E-18   -2.901287817698581E-17   -2.8889544979610807E-17
8.5E-6                    8.139740744244241E-20    2.326084959809821E-19    9.616748194533687E-19    5.436328847668125E-18    9.231868190769268E-18    1.1179302634881323E-17   8.949286899501715E-21    2.3156758472783694E-19   -6.316575682048568E-17   -1.0988446916997359E-16  -3.84768874833722E-17
9.0E-6                    4.371264275310566E-19    2.1235820499808814E-19   2.6958884429648045E-18   7.618090596408377E-18    2.6477466456514276E-17   4.130063836162788E-17    -2.414342122881926E-19   3.0879319758805475E-19   -1.5807175070898283E-16  -1.460667234460508E-16   -1.3383689507968854E-17
9.499999999999999E-6      3.5368658517276154E-19   2.914798154131485E-20    3.2695993896167587E-18   8.580539589563783E-18    4.317731992289E-17       3.3474076101528425E-17   -1.6840506459881636E-19  -7.9121629826568155E-19  -1.7872960444230307E-16  -2.00381148529733E-16    -1.9253461876117515E-16
9.999999999999999E-6      -8.121385375299549E-19   1.426626219084591E-18    5.6919864386038554E-18   3.9994333403691486E-17   1.0717203130063049E-16   -7.23602923530967E-19    9.828150993026253E-19    -1.9491428820494694E-18  -3.72663788093101E-16    -9.234289010606971E-16   -9.211531155639729E-16
1.05E-5                   -7.917293848051027E-19   7.235719289249923E-18    2.4171537698858587E-17   1.310662991254816E-16    3.940012231366723E-16    9.827337030618003E-17    1.2658028684153807E-18   1.2112126539394874E-18   -1.5910181317932289E-15  -3.0259086586624593E-15  -1.9500842369372337E-15
1.1E-5                    5.820678634904135E-18    1.6741308326265097E-17   7.209997694008166E-17    3.2419389614777747E-16   1.1440944848933085E-15   4.82857615380699E-16     -3.0360080636310508E-18  7.676118028766373E-18    -4.3889256428119595E-15  -6.399184028091576E-15   -3.3141033795894947E-15
1.15E-5                   1.8490539187625978E-17   2.8185000865767875E-17   1.5800393001530214E-16   8.241083529593748E-16    2.7039989314715963E-15   1.1929543411344553E-15   -6.731030742439798E-18   2.1664457833119335E-18   -8.667093975310093E-15   -1.2387867269752633E-14  -8.696716334030407E-15
1.2E-5                    2.4488449954618314E-17   6.257833817334926E-17    3.54010398987547E-16     2.0332375612450212E-15   6.3770452668866735E-15   2.6583673532459346E-15   5.209932102036818E-18    -2.4323878533587235E-17  -1.6704077931440192E-14  -2.870070968649486E-14   -2.5503650266606446E-14
1.2499999999999999E-5     2.6084561768899787E-17   1.8515050622839223E-16   8.925322927511961E-16    4.6409390693893146E-15   1.6216987533223984E-14   6.270140798550108E-15    2.4600901262115723E-17   -3.521882873508307E-17   -3.7532650860867114E-14  -6.950635453949054E-14   -5.909163066276196E-14
1.3E-5                    8.981257702052985E-17    4.813327052186836E-16    2.16065628963188E-15     1.0757992579870439E-14   4.0914092914333985E-14   1.4060052687018378E-14   1.6650651023065905E-18   2.3302743452838716E-17   -8.752477302667015E-14   -1.514739246919698E-13   -1.1803498354730195E-13
1.35E-5                   3.274415409943209E-16    1.0566273110364424E-15   4.7672905534287375E-15   2.5715858237345074E-14   9.658360338533344E-14    2.9377680300644255E-14   -7.228618348756012E-17   9.601457962133548E-17    -1.8902874544903575E-13  -3.0309504758434833E-13  -2.444380811229695E-13
1.4E-5                    7.89711264743116E-16     2.2454421422465083E-15   1.0208824594164106E-14   5.885249464456044E-14    2.1580323085853723E-13   6.223365125012676E-14    -7.168414305282163E-17   -1.568961700226312E-17   -3.7714536219941276E-13  -5.960128682129464E-13   -5.361487147376223E-13
1.45E-5                   1.5362539554274006E-15   4.9833728801344596E-15   2.216521312074674E-14    1.2641359252634733E-13   4.688893403805094E-13    1.3664113399691778E-13   1.074105246412544E-16    -3.84012817866593E-16    -7.227901759205765E-13   -1.1770056614055394E-12  -1.1187815154515035E-12
1.4999999999999999E-5     3.1462049469508073E-15   1.0959014228168267E-14   4.7679459197326716E-14   2.635783672594521E-13    9.939979297945158E-13    2.896519481323406E-13    2.2646061796621835E-16   -6.53988877836081E-16    -1.3650651722624373E-12  -2.273079869932569E-12   -2.1252865167716275E-12
1.55E-5                   7.193346510102862E-15    2.274737550423726E-14    9.868943644895049E-14    5.428664300752079E-13    2.021289795406531E-12    5.634184790782442E-13    -1.4433327058825478E-16  -4.182118632113549E-16   -2.5230020109058578E-12  -4.176629989474519E-12   -3.805592550458667E-12
1.6E-5                    1.586233829962294E-14    4.547584588022739E-14    1.9728054326287287E-13   1.089724829963637E-12    3.881412472828813E-12    1.022859493947399E-12    -8.271447464208734E-16   -2.780438962563384E-16   -4.476674600719917E-12   -7.2607500505095975E-12  -6.714399235458517E-12
1.6499999999999998E-5     3.1798019761319566E-14   9.100097716464037E-14    3.8670225211994203E-13   2.105729404846782E-12    7.004330561834068E-12    1.831027505285845E-12    -8.28116995564692E-16    -2.0951677562270227E-15  -7.597607467621235E-12   -1.203336872226103E-11   -1.1650290042763135E-11
1.7E-5                    6.141393081300132E-14    1.8209729171256204E-13   7.430385831708698E-13    3.9133021593833995E-12   1.1889227524126463E-11   3.33166823185141E-12     1.437865627607549E-16    -7.139465096806235E-15   -1.2458849235262476E-11  -1.9027682462794693E-11  -1.9084565692392704E-11
1.75E-5                   1.2136869229565108E-13   3.5387569850783205E-13   1.3844663459846046E-12   6.973043177521055E-12    1.8935342690090403E-11   6.010581005650598E-12    9.31655223903162E-17     -1.423304953339801E-14   -1.9688759539049746E-11  -2.822883807329068E-11   -2.838255003045585E-11
1.8E-5                    2.407623321538351E-13    6.587254450278178E-13    2.4918617480648377E-12   1.1776043142068956E-11   2.800869667585029E-11    1.0328499759217587E-11   -3.645936179232825E-15   -2.2526903858456523E-14  -2.916135813215511E-11   -3.831663601046761E-11   -3.7670150842436667E-11
1.85E-5                   4.565440967248156E-13    1.1888373898645127E-12   4.339754294158921E-12    1.8585755403891254E-11   3.791155061733182E-11    1.666091055172684E-11    -1.0395565348026122E-14  -3.866962116173829E-14   -3.913718687304613E-11   -4.6841322045521045E-11  -4.489690696639701E-11
1.8999999999999998E-5     8.218024667715604E-13    2.1137198065175373E-12   7.256292889529502E-12    2.7104116796933784E-11   4.63846338499556E-11     2.544777017499593E-11    -1.6318920172582375E-14  -7.907861155829956E-14   -4.694142041605268E-11   -5.186443526719039E-11   -4.934172640822464E-11
1.95E-5                   1.4518492361479954E-12   3.690743175847844E-12    1.1398210550226887E-11   3.6162075719785553E-11   5.1172612385762004E-11   3.705007940530082E-11    -2.2430107776906263E-14  -1.6116505030210316E-13  -5.1290965238202755E-11  -5.346379964528576E-11   -5.1819167263830645E-11
1.9999999999999998E-5     2.5813443843406617E-12   6.187200656632127E-12    1.640131525110951E-11    4.366882228414963E-11    5.155443078693678E-11    5.0764564095029926E-11   -4.138343483171686E-14   -2.978214909136406E-13   -5.345270296294185E-11   -5.2914147094797494E-11  -5.290865673114705E-11
2.05E-5                   4.535456596565118E-12    9.69094913254407E-12     2.12292666300542E-11     4.7274845639683364E-11   4.8636698205903006E-11   6.376162785685409E-11    -8.97527729639769E-14    -5.16833550328852E-13    -5.490683310877232E-11   -5.0206175282443084E-11  -5.1099235667621015E-11
2.1E-5                    7.540642131222153E-12    1.3875947013361425E-11   2.4523836064180098E-11   4.5793264674985165E-11   4.351476548892111E-11    7.181185479936279E-11    -1.7311121454905928E-13  -8.912710018957768E-13   -5.40461798442513E-11    -4.31820554206344E-11    -4.3503526114991435E-11
2.1499999999999997E-5     1.1440141997214742E-11   1.7883946962773956E-11   2.5337479078034104E-11   4.0172896514603586E-11   3.499019723398755E-11    7.20723114055302E-11     -2.950126348944665E-13   -1.531381513348136E-12   -4.678684175360843E-11   -2.9568460961187766E-11  -2.8799662564991858E-11
2.2E-5                    1.547830618230338E-11    2.0491929532853466E-11   2.364790123413713E-11    3.241195725875183E-11    1.9770521218050122E-11   6.503519293225011E-11    -4.983843891205533E-13   -2.5339258110516256E-12  -3.095224567109906E-11   -9.102734655518338E-12   -8.559994596378011E-12
2.2499999999999998E-5     1.8257895504839705E-11   2.0550619329558328E-11   2.0022637654377525E-11   2.2875679037225328E-11   -4.3995493126846295E-12  5.2712483456709684E-11   -8.850488460747084E-13   -3.965326223532134E-12   -8.426834089704916E-12   1.713493738553133E-11    1.5619755733459767E-11
2.3E-5                    1.79353352808252E-11     1.7410965372630402E-11   1.4550440515478758E-11   9.099240130925721E-12    -3.6003406458373555E-11  3.465406917560426E-11    -1.5588494952137408E-12  -5.8920221637749234E-12  1.8396652088576958E-11   4.915951860056146E-11    4.611322075987414E-11
2.35E-5                   1.2879966016407484E-11   1.1082246030713755E-11   6.2761653019275195E-12   -1.177597326482902E-11   -7.093657833147635E-11   6.857210329511381E-12    -2.5542336097460384E-12  -8.285302091169479E-12   5.123493583346467E-11    8.913770037693933E-11    8.853620191841205E-11
2.4E-5                    2.9652965067764056E-12   2.238907232878547E-12    -5.6917092423213314E-12  -3.932722569485203E-11   -1.0690272969444014E-10  -3.442576002070109E-11   -3.878934008803173E-12   -1.0699750721043821E-11  9.496360861452124E-11    1.3993075722636159E-10   1.4573041029278972E-10
2.45E-5                   -9.229610375828285E-12   -7.74723336761536E-12    -2.040213539564362E-11   -6.981891137970026E-11   -1.464471144936E-10      -8.823744149364602E-11   -5.617745024234471E-12   -1.2106418712008801E-11  1.5191503741384604E-10   2.027445799580502E-10    2.1346632416782451E-10
2.4999999999999998E-5     -1.9040722891496793E-11  -1.712398085278278E-11   -3.53807353701585E-11    -1.0088282415943135E-10  -1.9509678418245907E-10  -1.492483295431269E-10   -7.816113439716023E-12   -1.1458196892137661E-11  2.188483250086782E-10    2.7601129447152774E-10   2.839306801340783E-10
2.55E-5                   -2.2964133915184906E-11  -2.4883002459896103E-11  -4.9570467069927957E-11  -1.3574899999442903E-10  -2.55978156541838E-10    -2.1255501040780536E-10  -1.0077265981241267E-11  -8.735009616870774E-12   2.9051250577845565E-10   3.5624740904525746E-10   3.532420700180547E-10
2.6E-5                    -2.217819496979636E-11   -3.196262991987943E-11   -6.517279863867505E-11   -1.8131595265097725E-10  -3.2595188927628845E-10  -2.772478957787651E-10   -1.1396738118631503E-11  -5.164073981985906E-12   3.6492620433082717E-10   4.3972180369916133E-10   4.235092572644706E-10
2.65E-5                   -2.2323271956261273E-11  -4.094665252453907E-11   -8.528136193688108E-11   -2.4119819402223894E-10  -3.971000753500943E-10   -3.447407332945423E-10   -1.0811405803123713E-11  -1.876928352448709E-12   4.4344205498488506E-10   5.229027731126066E-10    4.9697276790827E-10
2.7E-5                    -2.8868132402618748E-11  -5.408415294284347E-11   -1.1022654501475286E-10  -3.1114966074938096E-10  -4.6233943962096575E-10  -4.143342862955321E-10   -8.449592289352313E-12   1.6228676630127304E-12   5.25876324465592E-10     6.013737671661685E-10    5.702197420166858E-10
2.7499999999999998E-5     -4.271060080982886E-11   -7.15752779082937E-11    -1.378420526400282E-10   -3.8182871066191334E-10  -5.196829352801491E-10   -4.816570266973395E-10   -5.648885726469588E-12   7.033086849662166E-12    6.073388133061175E-10    6.695375299420142E-10    6.356920280816594E-10
2.8E-5                    -6.064866392208956E-11   -9.169334946099393E-11   -1.6674550846580328E-10  -4.4546651713375013E-10  -5.70627407376362E-10    -5.4158512812045E-10     -3.5465450266109524E-12  1.505413122656903E-11    6.805448363259129E-10    7.225894330271427E-10    6.872597184444804E-10
2.8499999999999998E-5     -7.918146559536577E-11   -1.1201776592043542E-10  -1.9665362715441892E-10  -4.991632696523191E-10   -6.140559695542159E-10   -5.913167196157904E-10   -1.5030558154800705E-12  2.424054078269728E-11    7.399036857058938E-10    7.581188088640068E-10    7.217174485702022E-10
2.9E-5                    -9.620669071010715E-11   -1.3037267931575615E-10  -2.2486138165291013E-10  -5.425535362694928E-10   -6.421834752912163E-10   -6.294895837143002E-10   2.6230935991958196E-12   3.265216049857487E-11    7.818004171039919E-10    7.7384031498169E-10      7.349034813944911E-10
2.95E-5                   -1.0921540099718644E-10  -1.453302992223084E-10   -2.4551289175511716E-10  -5.740522349724064E-10   -6.43486110657396E-10    -6.531627763427607E-10   1.0296975135939611E-11   4.029919366846572E-11    8.011108977335822E-10    7.631810531327867E-10    7.188224586497005E-10
2.9999999999999997E-5     -1.1426336741790073E-10  -1.5642229050031555E-10  -2.5491344558510677E-10  -5.897776603631486E-10   -6.100972149403599E-10   -6.571275603400714E-10   2.0623651179468327E-11   4.915417319994153E-11    7.89154382212725E-10     7.146038609076764E-10    6.639547668462161E-10
3.05E-5                   -1.0862499398934871E-10  -1.634482463358369E-10   -2.55916043309061E-10    -5.84565126544803E-10    -5.417688134991236E-10   -6.353842940558009E-10   3.1268430085983483E-11   6.065566126165201E-11    7.362558903834342E-10    6.166572673918174E-10    5.634237810593114E-10
3.1E-5                    -9.402445849713576E-11   -1.6517448380843134E-10  -2.538228362427565E-10   -5.524656087307124E-10   -4.4172484950355085E-10  -5.808528110406189E-10   4.1058692664636526E-11   7.379345776131687E-11    6.357098872706129E-10    4.634432887598958E-10    4.1394329183159966E-10
3.15E-5                   -7.586585466391592E-11   -1.5937283975074776E-10  -2.4775869554182166E-10  -4.864243764811881E-10   -3.086185938727097E-10   -4.8360556576929E-10     5.120089193717557E-11    8.588521644590399E-11    4.837914588384691E-10    2.5451878121014457E-10   2.1351710456744844E-10
3.2E-5                    -5.870860074911716E-11   -1.4481472298626095E-10  -2.286344786885375E-10   -3.790108362865881E-10   -1.33493763194588E-10    -3.3303733210161646E-10  6.359022729037888E-11    9.479432776758654E-11    2.758384497629391E-10    -9.934788529960889E-12   -4.048135648364368E-11
3.25E-5                   -4.253996512348314E-11   -1.2256826362321055E-10  -1.868763900994024E-10   -2.2498216178061345E-10  9.453440706728515E-11    -1.2496336254805608E-10  7.817611497717051E-11    1.0007699202492982E-10   4.3668749522999934E-12   -3.325462198500269E-10   -3.50893853015539E-10
3.2999999999999996E-5     -2.3437730121008724E-11  -9.411603549004711E-11   -1.2069201705024088E-10  -2.3660128259999845E-11  3.7974449774100957E-10   1.3422678852648112E-10   9.248587444555938E-11    1.0229293520773235E-10   -3.368659926719284E-10   -7.169682789726419E-10   -7.189817270736506E-10
3.35E-5                   2.289413399954872E-12    -5.8009598227275824E-11  -3.5172927641722664E-11  2.2180348745645246E-10   7.172778397128719E-10    4.3298863708247914E-10   1.037794321734308E-10    1.0165493987924644E-10   -7.468639752224989E-10   -1.1630754946773797E-9   -1.1426837749530912E-9
3.4E-5                    3.514533074849755E-11    -9.234034252705056E-12   6.586108981704205E-11    5.08339056799118E-10     1.0980809130692002E-9    7.644602859940183E-10    1.1120557634623812E-10   9.731258713995627E-11    -1.216478779161564E-9    -1.663900211499858E-9    -1.6154880546806184E-9
3.45E-5                   7.436828826541102E-11    5.7234105651545964E-11   1.846489207787069E-10    8.359534675485845E-10    1.513900367298983E-9     1.1293618013143336E-9    1.1554937554619209E-10   8.75639142638925E-11     -1.733327650877902E-9    -2.206290632177382E-9    -2.1259615405973772E-9
3.5E-5                    1.222498989948866E-10    1.4170869823662955E-10   3.2503097245496896E-10   1.2055781563443884E-9    1.955908351326515E-9     1.5288246663665416E-9    1.1719988645601843E-10   7.057085345535804E-11    -2.2862563731273926E-9   -2.7732520244829843E-9   -2.6577985812507764E-9
3.5499999999999996E-5     1.8382025427815044E-10   2.38453638554634E-10     4.848091219825293E-10    1.612927254570042E-9     2.410022822871256E-9     1.9554610100470996E-9    1.1492186127309077E-10   4.5067332192549207E-11   -2.8643801118433487E-9   -3.345086790211377E-9    -3.1903724145893488E-9
3.6E-5                    2.598220120184605E-10    3.39379104280863E-10     6.549835298985094E-10    2.0443678859401007E-9    2.8564861997873814E-9    2.391327109903533E-9     1.0668875077105825E-10   1.0731041781504931E-11   -3.452579434840113E-9    -3.898953287891997E-9    -3.7000492059976972E-9
3.65E-5                   3.4081034327862367E-10   4.3947313759012867E-10   8.268350250876123E-10    2.4787654920239746E-9    3.2742477688665464E-9    2.812450455757724E-9     9.12110747527164E-11     -3.188981290208093E-11   -4.028398395772782E-9    -4.4085924394874955E-9   -4.1618929506202995E-9
3.7E-5                    4.109710257324798E-10    5.383834917616235E-10    9.974676601841916E-10    2.8929075462701534E-9    3.6430513853052735E-9    3.193675853402105E-9     6.813232038033913E-11    -8.176188725405561E-11   -4.562282015452579E-9    -4.8449874390133795E-9   -4.550182332596827E-9
3.75E-5                   4.589561930690446E-10    6.364835148633955E-10    1.1665683051457393E-9    3.2654353447272786E-9    3.939951595889236E-9     3.510111717081666E-9     3.674288587578194E-11    -1.3777052849336107E-10  -5.019751192656324E-9    -5.17669367683366E-9     -4.836796629281531E-9
3.7999999999999995E-5     4.8434395266084E-10      7.303239700889805E-10    1.328839995317636E-9     3.577303633715624E-9     4.136315072476769E-9     3.736632213220467E-9     -4.910586442312867E-12   -1.989433796173614E-10   -5.3640642151078425E-9   -5.369261165188854E-9    -4.989300324673096E-9
3.85E-5                   4.936268412433158E-10    8.129838475814938E-10    1.4719621855797352E-9    3.8101135169057565E-9    4.2013043226675414E-9    3.8481282004778195E-9    -5.890465948195399E-11   -2.6450812656776423E-10  -5.558745325453825E-9    -5.385702708977236E-9    -4.9718022206159345E-9
3.9E-5                    4.912878361082081E-10    8.77893849861929E-10     1.582133994566227E-9     3.94364973844595E-9      4.108324076028092E-9     3.82076399350208E-9      -1.2510696806756282E-10  -3.337056884404931E-10   -5.569036056374695E-9    -5.1897229562711365E-9   -4.749078621326221E-9
3.95E-5                   4.752753908175618E-10    9.199908144277479E-10    1.6494884547542086E-9    3.953475054513569E-9     3.836736332380534E-9     3.6327746645750807E-9    -2.0034012867768625E-10  -4.0501172272168627E-10  -5.361735122480625E-9    -4.749905898178491E-9    -4.291220644232663E-9
3.9999999999999996E-5     4.3977496119454987E-10   9.328895246781969E-10    1.6669779817134197E-9    3.81081092987671E-9      3.368420209519916E-9     3.2644759354449897E-9    -2.8061418427080344E-10  -4.748606415585027E-10   -4.904970995158056E-9    -4.041601092430429E-9    -3.5763008054760833E-9
4.0499999999999995E-5     3.8040355862591635E-10   9.078177768306917E-10    1.6257826310875875E-9    3.486821467257137E-9     2.6859900052697176E-9    2.6989519426677456E-9    -3.644774705211351E-10   -5.371453167267895E-10   -4.170205571783767E-9    -3.046512532007181E-9    -2.5911269370787504E-9
4.1E-5                    2.955215293037671E-10    8.378497317770144E-10    1.514411062906853E-9     2.959233613809507E-9     1.7763843874348388E-9    1.924342255261108E-9     -4.5352237202049206E-10  -5.848639054608993E-10   -3.136284019557545E-9    -1.7530996556002621E-9   -1.3311664908186598E-9
4.15E-5                   1.8287889980229308E-10   7.221781167434974E-10    1.3227805232183882E-9    2.215824849461741E-9     6.359972065464704E-10    9.36476249495605E-10     -5.485756578760323E-10   -6.13098437909418E-10    -1.79273212674718E-9     -1.5917530609675933E-10  1.9991736966774152E-10
4.2E-5                    3.7402858083411126E-11   5.635900237812397E-10    1.0460146761709218E-9    1.2526294697338352E-9    -7.274294576980257E-10   -2.597206293426126E-10   -6.45018246387273E-10    -6.203164629318963E-10   -1.4044591311293482E-10  1.7253013267778715E-9    1.9902299625014635E-9
4.2499999999999996E-5     -1.4458514933752257E-10  3.617222637571876E-10    6.841527032376504E-10    7.130768316018679E-11    -2.295775062758797E-9    -1.6494619267470495E-9   -7.323792479367519E-10   -6.062475283205027E-10   1.8088798100097519E-9    3.8768652377122665E-9    4.017348403312894E-9
4.2999999999999995E-5     -3.5808974533544707E-10  1.1184272354636546E-10   2.3977088756196985E-10   -1.3192889827914894E-9   -4.041194287338071E-9    -3.2063557337411124E-9   -7.992441399659073E-10   -5.68534175427209E-10    4.031956721270274E-9     6.257526186520608E-9     6.243927426875332E-9
4.35E-5                   -5.884162536322089E-10   -1.8758876165379732E-10  -2.8287279272968516E-10  -2.89891441474199E-9     -5.925235734931934E-9    -4.890094568623703E-9    -8.388244435841989E-10   -5.020062196193375E-10   6.491013651250833E-9     8.8130814821075E-9       8.614802623969474E-9
4.4E-5                    -8.190198907252367E-10   -5.276243854382595E-10   -8.768414722951645E-10   -4.634940357713157E-9    -7.89742987488536E-9     -6.645873989653721E-9    -8.49761470795086E-10    -4.013221660384193E-10   9.130633305138959E-9     1.147228316171382E-8     1.1058727205704584E-8
4.45E-5                   -1.0389009132437713E-9   -8.917053010775799E-10   -1.5315814929371494E-9   -6.486013750209388E-9    -9.894710714067729E-9    -8.406560120915585E-9    -8.318638365944016E-10   -2.637934091272237E-10   1.1876769376126625E-8    1.4148527139557714E-8    1.3492933535305474E-8
4.4999999999999996E-5     -1.2402363309783502E-9   -1.2657414393279669E-9   -2.2328010546142437E-9   -8.404770164216525E-9    -1.1842881285478523E-8   -1.0096351149330626E-8   -7.816432847927885E-10   -8.95261929339231E-11    1.4638848761610592E-8    1.6743009044317693E-8    1.5825753839562947E-8
4.5499999999999995E-5     -1.4106317274601998E-9   -1.642797767561432E-9    -2.9625188218042736E-9   -1.0334431651632927E-8   -1.3660160519805617E-8   -1.1634501499280606E-8   -6.920325290576361E-10   1.201879545857345E-10    1.7313594700987608E-8    1.9147168944039614E-8    1.7955864266303296E-8
4.6E-5                    -1.5328970278980178E-9   -2.016742200034414E-9    -3.6990144468001864E-9   -1.2202101126585795E-8   -1.5260326774062227E-8   -1.2938498981513385E-8   -5.557001698417012E-10   3.6330425024493375E-10   1.9788247107625678E-8    2.1244261075437253E-8    1.977197833435574E-8
4.65E-5                   -1.5954527413648547E-9   -2.3735434699138185E-9   -4.4170365911313235E-9   -1.3917329803910729E-8   -1.655315399164762E-8    -1.392600982672038E-8    -3.6803652217422714E-10  6.354943761759437E-10    2.1942349196287757E-8    2.2911654145503683E-8    2.115710971307441E-8
4.7E-5                    -1.6008051109240731E-9   -2.6912893961420262E-9   -5.088286764637361E-9    -1.538076099246743E-8    -1.744472134692392E-8    -1.4515613400034533E-8   -1.2754502600213356E-10  9.287564695329205E-10    2.3649798309835535E-8    2.4024916843899684E-8    2.1996670333633697E-8
4.7499999999999996E-5     -1.559406237756907E-9    -2.9478494397689634E-9   -5.681901639932038E-9    -1.6497956374898595E-8   -1.7842838701227145E-8   -1.4628883864674027E-8   1.6499424180348243E-10   1.2319644744213139E-9    2.4783316277402697E-8    2.4463601587311293E-8    2.2185863452388264E-8
4.8E-5                    -1.4726898517014276E-9   -3.1257739953451847E-9   -6.1652088003127045E-9   -1.7188082877076552E-8   -1.7666954345236472E-8   -1.4196751410723288E-8   5.064423052384888E-10    1.5325088113443341E-9    2.5221032256980666E-8    2.41182015987496E-8      2.163342907894521E-8
4.85E-5                   -1.3221434903491308E-9   -3.2097603406062747E-9   -6.505494224241335E-9    -1.7381856468614123E-8   -1.685468874637692E-8    -1.3168444937286032E-8   8.904895928656065E-10    1.8170589143162159E-9    2.4852629860592815E-8    2.2897174521444824E-8    2.026340967408971E-8