% Model:              Untitled.mph
% Version:            COMSOL 6.0.0.405
% Date:               Jul 17 2025, 06:26
% Dimension:          1
% Nodes:              401
% Expressions:        11
% Description:        Point graph
% Time (s)                Displacement field, Y component Displacement field, Y component Displacement field, Y component Displacement field, Y component Displacement field, Y component Displacement field, Y component Displacement field, Y component Displacement field, Y component Displacement field, Y component Displacement field, Y component Displacement field, Y component
0                         3.626826389589E-34       1.6203554288010628E-33   1.094630515120168E-33    2.562810627588269E-33    1.0264025221516438E-32   3.075170952069601E-34    2.3104323336499464E-34   -1.7957966330157436E-34  1.3654831966092173E-36   -3.1499767013894296E-33  -1.226534818925906E-32
5.0E-7                    -5.592772195602533E-26   -1.6582830051479396E-25  -1.6116959955857955E-25  -4.344592875217217E-25   -1.5037649027152176E-24  4.3421885025793695E-26   8.884599250154336E-25    3.302343460347232E-26    -4.019144220288295E-27   8.637797234209768E-25    1.9116588709401557E-24
1.0E-6                    9.345919139707334E-26    -5.974372369612747E-25   3.585266045352962E-25    1.6486738616210563E-25   2.11852045823336E-24     1.0848227403009113E-24   6.284024436260955E-24    -7.484231465149122E-27   -2.1766879663471958E-26  -4.106682632471527E-24   -2.853726615117738E-24
1.5E-6                    2.108204069449468E-25    3.430440191853154E-24    -2.7933943939334E-25     1.7737948290592723E-24   7.277611590016567E-24    6.612302187270756E-25    5.350418270041955E-24    1.5325936478611018E-25   8.48295097910896E-26     2.437698885430758E-24    -1.4751161412108472E-24
2.0E-6                    -2.615043927233803E-24   -6.489898591401583E-24   -9.161025281018017E-25   -5.7520829391696735E-24  1.8544165344702945E-23   -5.386353685800874E-24   -7.387778520523279E-23   3.210820394283477E-25    5.067311968004019E-26    6.469602921545402E-23    5.3596420690288414E-24
2.4999999999999998E-6     5.215207407513823E-24    -2.8648524606485414E-23  1.1608291476987184E-24   4.426715075806145E-25    1.227235657791227E-22    9.529292461596744E-25    -3.827892498708485E-22   8.154008483933736E-25    9.16153176954193E-25     -9.44911511232251E-23    3.593280676530539E-24
3.0E-6                    8.49805155939962E-24     9.877698832081537E-23    -5.964391775334504E-24   -2.09414195134061E-23    2.1537498168238296E-22   -6.421427315598872E-23   2.4308946378501285E-24   8.401850879156349E-24    -1.5832887208283929E-24  -5.433733021194878E-22   3.2222995111988937E-23
3.5E-6                    -2.5718016545233177E-23  2.1526662136732E-22      6.924859959771878E-23    1.1124920071407853E-22   8.173549117761559E-23    -8.794714635899609E-23   4.366462036554694E-21    5.90512016548049E-24     -8.849105341408009E-24   3.789999400898751E-22    -2.8538324881079076E-22
4.0E-6                    -1.0856228651513003E-22  -9.822199533916779E-22   1.2172761943515247E-22   2.44901218092882E-22     7.233430991762809E-22    9.926754191704009E-22    7.013180516468534E-21    -3.962597003569338E-23   3.2642670894797025E-24   4.125984885723221E-21    -7.656455613624437E-22
4.5E-6                    2.19961757389081E-22     -4.1057237378941684E-22  7.700754471078838E-24    2.993010945673444E-21    8.824435133040777E-21    1.5368654358436443E-21   -2.3198110081925408E-20  -3.031665271994828E-22   1.9834650983442095E-23   -1.2443944676880835E-21  1.32073908676463E-21
4.9999999999999996E-6     1.0768438123012361E-21   7.270575542959516E-21    1.3029883202967172E-22   1.9965205755427796E-20   7.652966939147103E-21    -3.654408185176094E-21   -7.776986635941188E-20   -2.523677693603434E-22   -4.240149097697273E-23   -2.0871236262789478E-20  1.4936062186359205E-21
5.5E-6                    -1.5275105911112854E-21  6.547783948888761E-22    1.4890237742647202E-21   3.142657451402167E-20    -3.618726513334949E-20   3.0478188431570527E-21   2.963032889260538E-20    1.6652279558876911E-21   -7.394079288635222E-23   1.2101107504620533E-22   -2.719699717838036E-20
6.0E-6                    -7.815119671875604E-21   -3.8525397331750976E-20  5.2842751480410564E-21   -7.218087146997952E-20   1.1911909390149729E-19   7.772892716478512E-20    4.492766391572631E-19    3.224730020087079E-21    5.747150078855116E-22    6.891111513169018E-20    -4.691061522788946E-20
6.5E-6                    8.747790470915514E-21    -4.3589542107794304E-21  1.8593163138691817E-20   -1.9297573175597754E-19  8.458422109336379E-19    2.4788652861260435E-19   5.115128932377697E-19    -2.5036897093206807E-21  1.6918751643736395E-21   -1.2811271946110614E-20  2.8935336384456594E-20
7.0E-6                    5.473842316178055E-20    1.8833051849342276E-19   8.113702799905465E-20    5.313445272115165E-19    7.695375015334724E-19    4.1828409468113396E-19   -1.2102722270670332E-18  -1.4261322511527598E-20  -2.135695769809781E-21   -2.866502936949968E-19   -2.39679583600573E-19
7.499999999999999E-6      -1.7172832502479248E-20  2.1078473164525217E-19   2.766119032368769E-19    3.036754254622133E-18    -2.026301065454261E-18   5.336065828022704E-19    -3.8706987545816325E-18  -6.100439242478304E-21   -1.691390122931147E-20   -1.2536783146287118E-19  -1.565491909044482E-18
8.0E-6                    -2.9596588146088955E-19  -2.2387686646449674E-19  6.489335766726226E-19    6.437345505145358E-18    1.3676313306674273E-18   1.4052987537993113E-18   -4.3170734647166903E-19  6.62953786387036E-20     -1.2031203360929978E-20  7.094037709736079E-19    -2.4792438110358666E-18
8.5E-6                    -6.662010697000911E-20   -4.0025319392432373E-19  1.3234713371623772E-18   8.455780748772206E-18    2.981227313638714E-17    5.3082797875992824E-18   1.6538397238050686E-17   1.8076537139130074E-19   1.0123329471800265E-19   -3.0208022539165477E-19  -2.510098892299754E-18
9.0E-6                    1.5505046090683664E-18   8.24725302504075E-19     4.024843985604316E-18    1.2442785230123777E-17   6.470133252550803E-17    1.6548878271792742E-17   3.0626504153823726E-17   1.400981155372961E-19    2.5392967123141843E-19   -6.623831463511919E-18   -1.9211179407781986E-17
9.499999999999999E-6      2.0069334739823827E-18   4.143380006750854E-18    1.511382007373657E-17    4.9629345038384677E-17   4.116191408598656E-17    5.18870803088782E-17     -9.864323075248906E-18   -1.7582806466641786E-19  -1.2949906749307388E-19  -1.3164407233197402E-17  -8.636146702102696E-17
9.999999999999999E-6      -3.963806671376874E-18   9.469583649493488E-18    4.560943485774752E-17    2.1312788896780847E-16   4.432535505854096E-17    1.5686933311017456E-16   -1.0994655363662306E-16  7.761616877420009E-20    -1.1828393758492698E-18  -7.046978059376766E-18   -1.913953641144849E-16
1.05E-5                   -9.611075298927281E-18   1.5905135632707285E-17   1.0893884258729935E-16   6.470755666527742E-16    5.100491691207219E-16    3.714119352243136E-16    -7.006868200715332E-17   3.1961189167412807E-18   2.0355507872505275E-20   -9.900830558071014E-18   -2.961583909157775E-16
1.1E-5                    1.0942618309068043E-17   3.543157681505213E-17    2.478781967312025E-16    1.4898485456687493E-15   1.8516422514400978E-15   6.780595302309422E-16    4.303623015671943E-16    1.1157564752870792E-17   6.990953338515153E-18    -1.21911379175925E-16    -7.37489487119501E-16
1.15E-5                   5.822651314140918E-17    1.1098300500893457E-16   6.323466352716095E-16    3.0803370879104483E-15   3.809172935746468E-15    1.2903447813922136E-15   1.2019802318949354E-15   2.4032319504651173E-17   1.1171138827134073E-17   -4.3214947195670994E-16  -2.7090797277626495E-15
1.2E-5                    5.903881880357381E-17    2.7723517844468665E-16   1.6934949382473153E-15   6.869060064132015E-15    6.260804248200034E-15    3.5201837848032447E-15   1.084084846235927E-15    4.526048658851099E-17    -5.3172649235221704E-18  -8.665747680767775E-16   -7.67497073615579E-15
1.2499999999999999E-5     -2.9437583274617456E-17  5.520453988048493E-16    4.251228088023903E-15    1.685897320098819E-14    1.2252209298454796E-14   1.0346600677574636E-14   -5.123950912705253E-16   8.66164166468491E-17     -1.8313300395911468E-17  -1.5036273566587952E-15  -1.612810953415847E-14
1.3E-5                    -6.752942031506011E-18   1.2539629467882069E-15   9.918607141652097E-15    4.069638555689346E-14    3.061570880383248E-14    2.541848964282384E-14    -4.648027999377407E-17   1.6390406821947383E-16   6.540245737115895E-17    -3.536715234318854E-15   -3.0245575281968327E-14
1.35E-5                   4.958310155455929E-16    3.4070399086141543E-15   2.23299006226911E-14     9.022251386381795E-14    7.44398109067269E-14     5.2012524001453654E-14   1.0554055486254932E-14   3.6448224346282214E-16   2.6207322278058155E-16   -9.693031456785921E-15   -6.381592305464549E-14
1.4E-5                    1.5691951083642841E-15   8.333152211873085E-15    4.9170833848947016E-14   1.8364764045349592E-13   1.56010543917841E-13     9.738363281722757E-14    3.534947751141884E-14    1.1098561591774241E-15   3.4970624679902865E-16   -2.3368213648709623E-14  -1.495436891245337E-13
1.45E-5                   2.9688474395490932E-15   1.7304375536616564E-14   1.0468039902027017E-13   3.541101108315668E-13    2.877951508024572E-13    1.866006007894963E-13    6.421627440535521E-14    3.340878866113846E-15    2.5842088270844984E-16   -4.938812830306651E-14   -3.255114861999603E-13
1.4999999999999999E-5     5.021881836196311E-15    3.474001763784147E-14    2.142060677027292E-13    6.677058759639706E-13    5.0507001331554E-13      3.796245981124966E-13    8.467912857874658E-14    7.887478799518504E-15    9.35487643552038E-16     -9.993537819224496E-14   -6.13067679350133E-13
1.55E-5                   1.0057958743506512E-14   7.451692460646365E-14    4.231490288660873E-13    1.239760893160684E-12    9.081960766493615E-13    7.715848815389471E-13    1.263695322820848E-13    1.4430360298525622E-14   4.071383894361301E-15    -2.025289141849606E-13   -1.0471532530127082E-12
1.6E-5                    2.4169774318943582E-14   1.6128240760984357E-13   8.065890629962115E-13    2.2219524758175227E-12   1.678140607267795E-12    1.4612846037447123E-12   2.9654931167808235E-13   2.337441255717952E-14    9.798442446111272E-15    -4.0473162090990793E-13  -1.7800505449597627E-12
1.6499999999999998E-5     5.873502013560146E-14    3.261516737602558E-13    1.4725917135041204E-12   3.772551857224322E-12    3.018043833619742E-12    2.525942820133575E-12    7.339120768109864E-13    4.3752342907844945E-14   1.6044458194617882E-14   -7.803431460265876E-13   -3.1336072138596406E-12
1.7E-5                    1.2846304992146276E-13   6.167632663223822E-13    2.5704630015409257E-12   6.131156984321435E-12    5.087939753839732E-12    4.106247394369113E-12    1.4827992513804064E-12   1.0188902768462016E-13   2.5065812486141068E-14   -1.4421897274301874E-12  -5.473897685659152E-12
1.75E-5                   2.4933616955384935E-13   1.1317574315513496E-12   4.337234226341475E-12    9.88614034184336E-12     8.100670004727822E-12    6.637795832407586E-12    2.4448446557650455E-12   2.363813828621644E-13    5.34629866399085E-14     -2.5507334066178055E-12  -9.086387119768041E-12
1.8E-5                    4.590349085111116E-13    2.043013037623984E-12    7.184444055874763E-12    1.6103271545596912E-11   1.256693421098917E-11    1.0989342125284445E-11   3.6027762838566507E-12   4.749223070879663E-13    1.3011699500538987E-13   -4.325828596963541E-12   -1.4345030639599083E-11
1.85E-5                   8.700128448302882E-13    3.5759801148014725E-12   1.1732669209591688E-11   2.5607929412427374E-11   1.9291474987485695E-11   1.8087683330937944E-11   5.446725648259555E-12    8.224177616830568E-13    2.7623603766317776E-13   -7.105421127818549E-12   -2.1851429497530994E-11
1.8999999999999998E-5     1.6942647465185818E-12   6.008257269303715E-12    1.8617640542635866E-11   3.743850631597537E-11    2.8726854412759168E-11   2.8002562453203588E-11   9.116918215372667E-12    1.310128920930292E-12    4.95174127771831E-13     -1.1388769002155252E-11  -3.171012448651655E-11
1.95E-5                   3.1670963639454977E-12   9.72474541959608E-12     2.7915760826291462E-11   4.8160426213937637E-11   4.0021061296196556E-11   3.926881864889496E-11    1.57442218060268E-11     2.1095511961087735E-12   8.11386978819107E-13     -1.7580635787771115E-11  -4.21843450136391E-11
1.9999999999999998E-5     5.4740349984498695E-12   1.512177243543302E-11    3.830557663094101E-11    5.385046875265817E-11    5.079615431342036E-11    4.9384639645438477E-11   2.5196940426882403E-11   3.6131976605085585E-12   1.3463501319137138E-12   -2.5302485658884712E-11  -4.9672684797585324E-11
2.05E-5                   8.916938726135261E-12    2.2098968548759756E-11   4.668774047570845E-11    5.346192082485035E-11    5.822495517202979E-11    5.628947759283521E-11    3.539631583443895E-11    6.3331396868803044E-12   2.3484077164999914E-12   -3.287555274836831E-11   -5.106489644739616E-11
2.1E-5                    1.4201413803347646E-11   2.947244494643141E-11    4.9372499161859944E-11   4.9366013526256925E-11   6.053534106699347E-11    5.93037516880178E-11     4.3283042455944793E-11   1.0571504977690958E-11   4.1045334485037705E-12   -3.7952305658281965E-11  -4.614283634577748E-11
2.1499999999999997E-5     2.215750878257372E-11    3.5244272128338135E-11   4.481961199770037E-11    4.3444563679620986E-11   5.741601908385424E-11    5.838849406578098E-11    4.69338885282163E-11     1.6036289867345854E-11   6.76982374154665E-12     -3.918255061522583E-11   -3.6846901282248864E-11
2.2E-5                    3.25554706146504E-11     3.796275235092223E-11    3.537592166782709E-11    3.336088183888986E-11    4.900134707420319E-11    5.2615023957776E-11      4.675179262548802E-11    2.1719793916101075E-11   1.0235370986378175E-11   -3.720696197775581E-11   -2.4258416353916355E-11
2.2499999999999998E-5     4.317885142730352E-11    3.777134574080284E-11    2.4894331585499957E-11   1.450467506850411E-11    3.479497663578214E-11    3.9919863437684295E-11   4.4232857464906394E-11   2.624429065921968E-11    1.4121543803010845E-11   -3.356163828518237E-11   -7.42041524528416E-12
2.3E-5                    5.09362556228383E-11     3.563761891918181E-11    1.3498485392772496E-11   -1.4360074547101634E-11  1.3786209201561272E-11   1.8737072256607906E-11   3.941474447919866E-11    2.8517690129471657E-11   1.7891408389157156E-11   -2.8437678552867583E-11  1.4649697590453504E-11
2.35E-5                   5.4620779269848364E-11   3.1576396362020516E-11   -4.059348882842307E-12   -4.9387991166564714E-11  -1.4781929862265292E-11  -1.039295731235155E-11   2.982149217116987E-11    2.818536615129208E-11    2.1020651708726975E-11   -1.9758859686722755E-11  4.1059994112104436E-11
2.4E-5                    5.602916237969443E-11    2.429409778776395E-11    -3.2563194066816545E-11  -8.632738913563885E-11   -5.136082988021546E-11   -4.536250879067955E-11   1.226847583262038E-11    2.53972211615598E-11     2.3117839589393238E-11   -4.727936610480492E-12   7.007789898484507E-11
2.45E-5                   5.713125212899243E-11    1.2668225463950065E-11   -6.907767246110321E-11   -1.2506653075992598E-10  -9.660805649846395E-11   -8.47661176071857E-11    -1.4245022142323399E-11  2.0003247939462887E-11   2.3865040480863406E-11   1.75563431757125E-11     1.0162041807055152E-10
2.4999999999999998E-5     5.603199079956675E-11    -3.429678521099435E-12   -1.0448523171527895E-10  -1.6817813016853898E-10  -1.5083411537235048E-10  -1.2932001715226467E-10  -4.756427719686465E-11   1.101689984260071E-11    2.278308342145613E-11    4.4999457484103114E-11   1.3802523089185659E-10
2.55E-5                   4.7091518829147615E-11   -2.432042781630579E-11   -1.3392250152483693E-10  -2.1645737743270702E-10  -2.1215380506049516E-10  -1.807832452436825E-10   -8.432968540017713E-11   -2.8219430760484936E-12  1.9102184565651365E-11   7.445989120271354E-11    1.8208442544604197E-10
2.6E-5                    2.594810533911661E-11    -5.128561752049377E-11   -1.6357637121308315E-10  -2.6792110213005303E-10  -2.7580096346011657E-10  -2.3958209876972617E-10  -1.2287747639311281E-10  -2.162224943225102E-11   1.2040426794973912E-11   1.0536947828843522E-10   2.3385746466416507E-10
2.65E-5                   -6.474169581601776E-12   -8.471257446272019E-11   -2.0428039310299516E-10  -3.2060872321845226E-10  -3.3667241375789354E-10  -3.037183651942417E-10   -1.6424438376898445E-10  -4.34684759828952E-11    1.3104352043783157E-12   1.4094873755307884E-10   2.8892079795408815E-10
2.7E-5                    -4.616968241515102E-11   -1.2227468533773078E-10  -2.587993437843573E-10   -3.7415645287479367E-10  -3.9323688797031305E-10  -3.700665742295411E-10   -2.103866305027913E-10   -6.53489707011161E-11    -1.2773050947558706E-11  1.8445605780530582E-10   3.4023712229620835E-10
2.7499999999999998E-5     -9.169973986154308E-11   -1.6118659660796636E-10  -3.179341028575341E-10   -4.2784905920720206E-10  -4.4844787621791187E-10  -4.3662344479468284E-10  -2.6149932920464965E-10  -8.54637832335931E-11    -2.9855294940391807E-11  2.3408460375594096E-10   3.829510935561922E-10
2.8E-5                    -1.4605298819936663E-10  -2.0257341259478208E-10  -3.693414625893129E-10   -4.782263802167588E-10   -5.058836752211553E-10   -5.031265499037534E-10   -3.150981845633096E-10   -1.0489757214983536E-10  -5.0147842248058985E-11  2.8336746621935604E-10   4.177453285661935E-10
2.8499999999999998E-5     -2.1270720825302049E-10  -2.512570000312103E-10   -4.07466231291103E-10    -5.19694009804828E-10    -5.641967754655122E-10   -5.687034474249598E-10   -3.6743586994719256E-10  -1.2687505763751204E-10  -7.422927379941964E-11   3.2771774737439937E-10   4.4863274698394664E-10
2.9E-5                    -2.9123863467559495E-10  -3.094260874504346E-10   -4.335992608798097E-10   -5.474769597341666E-10   -6.146901254624928E-10   -6.281914059177055E-10   -4.1524559460039635E-10  -1.5388579398109467E-10  -1.0210124172124694E-10  3.6890746953839493E-10   4.76584710720617E-10
2.95E-5                   -3.7726948876044916E-10  -3.714544163760671E-10   -4.491283524596745E-10   -5.591169388823077E-10   -6.441204902250214E-10   -6.711318940836822E-10   -4.558737427116635E-10   -1.8504310686015421E-10  -1.3249868644993208E-10  4.1090802921288723E-10   4.953495631585985E-10
2.9999999999999997E-5     -4.651180689837849E-10   -4.266294678812238E-10   -4.520309637684354E-10   -5.520670840461612E-10   -6.407993026775201E-10   -6.85941745178863E-10    -4.863421592780316E-10   -2.1608537716596052E-10  -1.632081002861747E-10   4.516821456827035E-10    4.937435686178114E-10
3.05E-5                   -5.490458431254953E-10   -4.669208424602742E-10   -4.386357022964626E-10   -5.197932239851368E-10   -5.997890943262227E-10   -6.662301643354371E-10   -5.032276588479533E-10   -2.4210284234798904E-10  -1.9205369375800177E-10  4.809355023142138E-10    4.616566684168888E-10
3.1E-5                    -6.228262440533097E-10   -4.912145459143968E-10   -4.045776346115105E-10   -4.5181599693004227E-10  -5.232853589995055E-10   -6.124846473879229E-10   -5.036154451885514E-10   -2.6041891991303355E-10  -2.1759440566790047E-10  4.861874696092673E-10    3.937894079223797E-10
3.15E-5                   -6.803138226972239E-10   -5.022759202103682E-10   -3.4334310509935887E-10  -3.393279942068238E-10   -4.151647334460836E-10   -5.264353740895042E-10   -4.853492404538358E-10   -2.7084904998283275E-10  -2.3899405259369757E-10  4.599547931773828E-10    2.892181180319782E-10
3.2E-5                    -7.174421396573461E-10   -5.004742011014918E-10   -2.4792453843253763E-10  -1.8068915266547032E-10  -2.735611095015252E-10   -4.039939003262574E-10   -4.4555480114272273E-10  -2.732935840677466E-10   -2.5533068797197897E-10  4.015405275015304E-10    1.4954442365222874E-10
3.25E-5                   -7.329074872187803E-10   -4.801706825224693E-10   -1.1648856406643695E-10  1.9706635558115337E-11   -8.858050722149068E-11   -2.349453386036233E-10   -3.7907538422040116E-10  -2.654415330695671E-10   -2.649938758440606E-10   3.142126846531103E-10    -2.2456492759856163E-11
3.2999999999999996E-5     -7.255927585970008E-10   -4.312075002292066E-10   4.611369112381449E-11    2.5738511286768785E-10   1.5117433199903375E-10   -9.7468545357315E-12     -2.7926245512859965E-10  -2.4306865652672604E-10  -2.656192251705373E-10   2.0160213807573657E-10   -2.2431972494192178E-10
3.35E-5                   -6.902945755415079E-10   -3.4408176275730503E-10  2.354021411045251E-10    5.304716209323498E-10    4.4860286199534984E-10   2.7435277036143137E-10   -1.4098587987707773E-10  -2.0237997617792837E-10  -2.5453920393596564E-10  6.485428518907078E-11    -4.550405109082631E-10
3.4E-5                    -6.155473846448659E-10   -2.1517628960725128E-10  4.541877888786305E-10    8.363189411333865E-10    7.947047429891318E-10    6.137141004691748E-10    3.7306987317299856E-11   -1.4170431425016838E-10  -2.2935114900047488E-10  -9.89278433492898E-11    -7.139124183343499E-10
3.45E-5                   -4.864705846498063E-10   -4.812797544738506E-11   7.088019148196367E-10    1.1684961262418482E-9    1.175083310216269E-9     1.0025418524009938E-9    2.550874515159276E-10    -6.100639250523797E-11   -1.8813971980487084E-10  -2.9523911898476765E-10  -9.977143703473543E-10
3.5E-5                    -2.9191776905948856E-10  1.500383547545238E-10    9.978644680527688E-10    1.5192138458068852E-9    1.57844109852856E-9      1.4348178432459058E-9    5.13160680127394E-10     3.9583571164075805E-11   -1.2916534141505509E-10  -5.276395577606343E-10   -1.2996297438164114E-9
3.5499999999999996E-5     -3.0864035811955546E-11  3.749337926332111E-10    1.3068629325515898E-9    1.8823532194492657E-9    1.9974779121697245E-9    1.9024116826811557E-9    8.143105452141015E-10    1.6019716862002457E-10   -5.03083636343434E-11    -7.938963804546022E-10   -1.6107461572955031E-9
3.6E-5                    2.878100582443123E-10    6.276283101119734E-10    1.6145212223824228E-9    2.2502202724395937E-9    2.422458112018211E-9     2.3924626600572182E-9    1.159017988165456E-9     3.0042887043329757E-10   5.102200579451362E-11    -1.0863004851968256E-9   -1.921097942434827E-9
3.65E-5                   6.526515223437123E-10    9.117089629366805E-10    1.9031861841609582E-9    2.607311913279955E-9     2.836100589432661E-9     2.8863043892879213E-9    1.539978842629131E-9     4.5884630524817833E-10   1.7689333127594653E-10   -1.3947160407201627E-9   -2.2184169597586783E-9
3.7E-5                    1.0574891340834099E-9    1.227414401519159E-9     2.162728444237751E-9     2.9305303140876194E-9    3.215337558302715E-9     3.35981948631297E-9      1.9411588672208895E-9    6.334759616379529E-10    3.2706477772406533E-10   -1.7082713747818321E-9   -2.4867788206920823E-9
3.75E-5                   1.502225734392778E-9     1.5680207718575445E-9    2.3864567245297307E-9    3.1965603250967066E-9    3.536543376613903E-9     3.785241603847456E-9     2.342209618828704E-9     8.218379254841754E-10    4.978582025267651E-10    -2.0144355956581246E-9   -2.7076147632197096E-9
3.7999999999999995E-5     1.9858661828598804E-9    1.9205446107218575E-9    2.5652018174059802E-9    3.3867191928561823E-9    3.77779788691528E-9      4.134482847024959E-9     2.723139171338918E-9     1.0191846129795859E-9    6.830772783764459E-10    -2.2976954413728745E-9   -2.8621261220942497E-9
3.85E-5                   2.4985749736401874E-9    2.268308131725868E-9     2.6844233355945433E-9    3.483813338385393E-9     3.916704803325553E-9     4.3817147965586805E-9    3.0647018308028702E-9    1.2162908435610934E-9    8.765141320306366E-10    -2.539914747755591E-9    -2.932417335322302E-9
3.9E-5                    3.0198024180209107E-9    2.5925053763198096E-9    2.7242688270596923E-9    3.467287143869537E-9     3.9275559810971086E-9    4.502244534538582E-9     3.345923959829408E-9     1.3998039639959728E-9    1.073607481388003E-9     -2.7223548095815677E-9   -2.9007576202072538E-9
3.95E-5                   3.5228078810273606E-9    2.873178429787797E-9     2.6613739530996988E-9    3.3140026407414894E-9    3.781641976348811E-9     4.468968545085535E-9     3.54334714762801E-9      1.555958804896235E-9     1.2701898199685187E-9    -2.827954140479925E-9    -2.7491620340011737E-9
3.9999999999999996E-5     3.979773199911065E-9     3.091207150423301E-9     2.4726480727280243E-9    3.0026647096944905E-9    3.451233157002084E-9     4.251695328223955E-9     3.6332257126520713E-9    1.6745956576560176E-9    1.4590922449284701E-9    -2.842143778784992E-9    -2.4615060506769006E-9
4.0499999999999995E-5     4.362445858388614E-9     3.229986002707551E-9     2.1403691791230403E-9    2.5162349357901567E-9    2.9152054124583174E-9    3.8218578749742565E-9    3.59357566472286E-9      1.7495667720350404E-9    1.6277519038057166E-9    -2.751426562915293E-9    -2.0274690316350286E-9
4.1E-5                    4.639397835394916E-9     3.2738264291163987E-9    1.6557716290795256E-9    1.8427232691217487E-9    2.163380413804272E-9     3.1585775991022296E-9    3.403817741258184E-9     1.775017456910713E-9     1.7592154532098324E-9    -2.5413237565296476E-9   -1.4448229736908553E-9
4.15E-5                   4.775185488254415E-9     3.203927709734795E-9     1.0194057092672028E-9    9.781738015058936E-10    1.1970068980347572E-9    2.2505789105013573E-9    3.0439268321101113E-9    1.7410718412752244E-9    1.835855065564921E-9     -2.1966769200843193E-9   -7.176496869546289E-10
4.2E-5                    4.734158510904277E-9     2.997111363354479E-9     2.3941483206011515E-10   -6.937896761680511E-11   2.5168723091415822E-11   1.0940314728938131E-9    2.4961613286180717E-9    1.633031833056447E-9     1.8429744769725285E-9    -1.7051097211133546E-9   1.4728715892202094E-10
4.2499999999999996E-5     4.485756949826338E-9     2.6304305007735637E-9    -6.709954295466662E-10   -1.2802324701284552E-9   -1.3392539612967179E-9   -3.085092771054449E-10   1.749131679909451E-9     1.4350011064999878E-9    1.7701101758819801E-9    -1.0608310098012038E-9   1.1411340275821407E-9
4.2999999999999995E-5     4.006229161353427E-9     2.088351584533477E-9     -1.6965861952209256E-9   -2.628424593451256E-9    -2.879035021167185E-9    -1.9447511950226006E-9   8.009120165500061E-10    1.1351476572239573E-9    1.6099585181838087E-9    -2.657006439405243E-10   2.2491424924946494E-9
4.35E-5                   3.2760874501716495E-9    1.366668183018637E-9     -2.8213365578683664E-9   -4.086391943224082E-9    -4.5665522397781255E-9   -3.787707375903236E-9    -3.4105796963047977E-10  7.289291610696239E-10    1.3563501472926792E-9    6.71991365372432E-10     3.446696104978286E-9
4.4E-5                    2.2778458740682074E-9    4.709744244538332E-10    -4.024277368766826E-9    -5.6234453586168015E-9   -6.357596221113057E-9    -5.7944885525938124E-9   -1.662072269389586E-9    2.1885987510101764E-10   1.0029682313501478E-9    1.7380891225696138E-9    4.699477103259904E-9
4.45E-5                   9.984584635006222E-10    -5.878152756238625E-10   -5.271321788419567E-9    -7.199506531569316E-9    -8.19143504743979E-9     -7.910013490832159E-9    -3.1413478760819285E-9   -3.8772989085761227E-10  5.440583630772239E-10    2.9111700714777653E-9    5.966729303170341E-9
4.4999999999999996E-5     -5.641145474617964E-10   -1.7967937006498865E-9   -6.5112295575152915E-9   -8.760844536371381E-9    -9.997323733962761E-9    -1.007106487715831E-8    -4.750917104887516E-9    -1.080567326509796E-9    -2.2743108219710584E-11  4.160857064936723E-9     7.203482830069721E-9
4.5499999999999995E-5     -2.3947221343081973E-9   -3.1401604812982733E-9   -7.68163733592507E-9     -1.0242613102114191E-8   -1.1701158062198674E-8   -1.2206046899542404E-8   -6.4533306214319E-9      -1.8467280705980956E-9   -6.930865290456957E-10   5.4478197925091416E-9    8.36042792013943E-9
4.6E-5                    -4.458771644325134E-9    -4.594003985014692E-9    -8.72070888372096E-9     -1.1575968544896141E-8   -1.3226822765104037E-8   -1.4231592758821656E-8   -8.200008436766782E-9    -2.6695848278500455E-9   -1.4547377842959812E-9   6.725432001386354E-9     9.383866465193226E-9
4.65E-5                   -6.703712449271136E-9    -6.120809279064013E-9    -9.574291097945562E-9    -1.26932502704282E-8     -1.4493613646717624E-8   -1.605158183565155E-8    -9.930982771482549E-9    -3.5271867501474494E-9   -2.2897327165101095E-9   7.941929719049723E-9     1.0217890327039426E-8
4.7E-5                    -9.061789148716072E-9    -7.669183880679704E-9    -1.0194429439706479E-8   -1.3528267769613101E-8   -1.541565737596879E-8    -1.75617842414854E-8     -1.1575957886973572E-8   -4.390861488333415E-9    -3.1776845515280027E-9   9.042537875241773E-9     1.0808312164531467E-8
4.7499999999999996E-5     -1.1452117314730904E-8   -9.17989256433717E-9     -1.0534559686280225E-8   -1.401564012145217E-8    -1.590691020869981E-8    -1.8657558815666337E-8   -1.3056998333336967E-8   -5.224985009828694E-9    -4.096354427464341E-9    9.97157862234866E-9      1.1106618907209685E-8
4.8E-5                    -1.3781765316011596E-8   -1.0592882485817297E-8   -1.0548526766180688E-8   -1.4094194719566045E-8   -1.5889821849856404E-8   -1.9239916962422428E-8   -1.4293128175324711E-8   -5.988745119282874E-9    -5.018134669401501E-9    1.0674295658645408E-8    1.1072664446723295E-8
4.85E-5                   -1.594677892523059E-8    -1.18491149561043E-8     -1.0194545918259844E-8   -1.371349805444487E-8    -1.5303146903823864E-8   -1.9218515232930096E-8   -1.5205424828056364E-8   -6.639703904785129E-9    -5.905742870007651E-9    1.1098195884223961E-8    1.0675684415851157E-8