% Model:              Untitled.mph
% Version:            COMSOL 6.0.0.405
% Date:               Jul 17 2025, 06:26
% Dimension:          1
% Nodes:              401
% Expressions:        11
% Description:        Point graph
% Time (s)                Displacement field, Y component Displacement field, Y component Displacement field, Y component Displacement field, Y component Displacement field, Y component Displacement field, Y component Displacement field, Y component Displacement field, Y component Displacement field, Y component Displacement field, Y component Displacement field, Y component
0                         -9.235768463104785E-42   -3.040230317115832E-40   -3.0657837771417745E-37  -8.350629181187988E-35   -4.885049501942764E-33   1.9414368398549573E-33   -3.8034589266801427E-32  -1.130113357180612E-31   -2.796141709502915E-33   2.0338050676674353E-39   3.919834021195946E-36
5.0E-7                    1.3395124875393894E-33   4.3931289739656474E-32   4.426486563120633E-29    6.300203333461824E-27    2.9042676497348693E-26   -5.0828588735504466E-26  9.438344821872519E-24    1.6112322999428342E-23   7.472559078724499E-25    -2.9235483534532414E-31  -5.573003257431792E-28
1.0E-6                    -1.8628239950638975E-33  -6.004064658783526E-32   -5.944435525784306E-29   1.2783837432247896E-25   9.124926906186428E-24    -2.7719240266886805E-25  -1.5144177527765292E-23  -2.0769174064991263E-23  -1.2841427618743978E-24  3.7451246924122222E-31   6.973975830844562E-28
1.5E-6                    1.868574880159501E-33    5.211769428960623E-32    4.1560564451769666E-29   -9.813666973167832E-25   -4.4482087185114744E-23  8.827497314805416E-24    3.7820875960553556E-23   -8.95268437750363E-24    -1.9747721684584765E-23  -1.7007854146835535E-31  -1.8692643146850928E-28
2.0E-6                    -8.847204327192657E-34   2.2110186597310147E-33   6.396716771399484E-29    3.1360817281470125E-24   1.1039412385541973E-22   -3.826695931923662E-23   -2.0284947916291025E-22  1.6947758492647358E-22   -8.968802717705883E-24   -7.275862580405635E-31   -1.3712576074234713E-27
2.4999999999999998E-6     -6.397864383360505E-33   -1.932066295941373E-31   -5.253648411438881E-28   -4.7380470399809624E-24  -2.354684987617926E-22   -3.134007985638003E-23   -6.098795242428195E-22   -6.11568929111855E-22    4.920068437785422E-22    3.1942040994546825E-30   6.489694114513445E-27
3.0E-6                    4.4621494783849957E-32   8.076093436415376E-31    2.027011248346716E-27    -2.253417332615959E-24   7.559968737475862E-23    1.7862546959436733E-22   5.64798977505545E-21     6.467401583328948E-22    -1.4414321958003089E-21  -7.634301993103142E-30   -1.2674702683922515E-26
3.5E-6                    -1.723978100805671E-31   -2.3306126381195444E-30  -6.353293955342269E-27   3.923362032547673E-23    1.9000616065542793E-21   -1.1786718635001563E-21  -9.342032096830712E-21   5.417452325072034E-22    1.7997624347246654E-22   2.581449150113645E-29    -1.4841810479659967E-26
4.0E-6                    3.8403311331490896E-31   4.188404081676476E-30    1.299894417650346E-26    -9.914219943390591E-23   -3.8853087648102585E-21  5.2534866648290874E-21   -2.152838183116602E-20   -1.965520069461323E-21   1.1986866369278815E-20   -3.012484568233896E-29   1.5984640898461358E-25
4.5E-6                    -1.9181841570460893E-31  -1.4041608007218801E-30  -1.1558583456280627E-26  -8.714870122481553E-23   -7.921829052074487E-21   5.300405359414843E-21    7.292636949253045E-20    -2.1305033821993348E-20  -6.095986491645736E-20   8.920543590469032E-29    2.0624608755603778E-25
4.9999999999999996E-6     -1.7523108333071523E-30  -2.0309320556577148E-29  -6.490379349983295E-26   7.437505629943533E-22    2.4097232814832585E-20   -5.005173135793986E-20   2.6840005210918816E-20   3.558572692869301E-20    -5.605656827952184E-20   5.430478797994177E-28    -5.635681511893605E-25
5.5E-6                    4.811643601621765E-30    -8.757893061102793E-30   1.424056547046868E-25    -1.6398668260929705E-22  3.1584648639825107E-20   -2.7792778680649475E-20  -3.271142488836637E-19   3.2209779762912863E-20   4.785700518403155E-19    5.144680160680881E-28    9.84030055737132E-25
6.0E-6                    -6.235766726909008E-31   1.031590964042809E-28    -3.2203193844412096E-25  -3.644169583335759E-21   -1.162920010510249E-19   2.213439451452338E-19    -9.793262571195546E-20   -4.457031586302991E-19   9.66185047454597E-20     3.4687343967609964E-27   8.972486017751252E-24
6.5E-6                    -2.921013790078474E-29   -4.5284256594169115E-28  -1.2328633387983396E-24  1.7549981431967246E-21   -1.593154106428862E-19   9.217922068987493E-20    8.195133361091671E-19    -2.421655594686827E-19   -2.9193192206659617E-18  2.1256461775996562E-26   1.4746380644086872E-23
7.0E-6                    2.42349559659794E-29     -3.330270708455808E-27   -9.078963175139995E-25   1.4425813718011958E-20   4.2892682996506564E-19   -9.855405762599353E-19   -4.355360142589047E-19   3.278721272776915E-19    -3.2080174486551847E-18  6.373890624451021E-26    5.6773428175689594E-24
7.499999999999999E-6      4.350256736245789E-29    -3.0735687397115777E-27  -8.511847581354185E-24   -8.621368861855779E-21   6.883702250562069E-19    -9.539826783582149E-19   -4.496925784191687E-18   -4.1880144973736435E-18  4.522197597113419E-18    1.4083583264481564E-25   8.252451856081343E-23
8.0E-6                    -4.766487523720356E-28   3.886036559436796E-27    -2.052551689755829E-23   -6.013927265495053E-20   -1.5488311722377456E-18  1.5741682934022615E-18   -2.4274837190399168E-18  -1.3138344473371835E-17  3.854586251913432E-18    3.2070548787194334E-25   6.302693558053746E-22
8.5E-6                    -8.321954496328501E-28   -4.516509636665363E-26   -1.495690816407374E-23   8.234686617041134E-21    -3.804421717601763E-18   -2.649947082634251E-18   4.925050155681883E-18    -2.2691217891116955E-17  -4.1901188938019434E-17  8.335289286423366E-25    2.057496095454788E-21
9.0E-6                    -4.076392564651783E-28   -2.5408085915039896E-25  -1.940328539840079E-22   1.874917475602008E-19    1.4806802008455545E-18   -2.1719006673354073E-17  -3.3327474846703664E-17  -6.474401650028812E-17   -1.485511425288918E-16   3.3976010388179115E-24   5.139282304350082E-21
9.499999999999999E-6      -7.350466035443442E-27   -5.436862883313491E-25   -1.135388223109066E-21   -8.635227649026276E-20   1.008943811898348E-17    -3.217263045064731E-17   -1.5755217068768927E-16  -2.242655000514194E-16   -2.736394748882459E-16   1.73145819135244E-23     1.5052856472223893E-20
9.999999999999999E-6      -3.36413903939683E-26    -1.1054965478512192E-24  -3.1461458173671976E-21  -1.083229147384064E-18   -5.472418676470442E-18   -2.883861368904538E-17   -2.409412956023295E-16   -6.227853485541504E-16   -4.824590572039569E-16   6.444604434275466E-23    4.445627709946456E-20
1.05E-5                   -8.060780860913966E-26   -4.148931002675678E-24   -6.2364802703061326E-21  -1.2352225185133912E-18  -6.445723854483384E-17   -1.5299864205167452E-16  -2.148798882069449E-16   -1.5260462010878608E-15  -1.4342779445219068E-15  1.6046465040556485E-22   1.2080382532870355E-19
1.1E-5                    -2.282984007179848E-25   -1.5352417870917995E-23  -1.504261871374447E-20   2.6922621740721395E-19   -1.1870280583947888E-16  -6.533606175627704E-16   -8.190374697816208E-16   -3.864014225832359E-15   -4.588829684506672E-15   3.4124691313255764E-22   3.740244213878498E-19
1.15E-5                   -8.108682875345096E-25   -5.029726721802925E-23   -5.4088953781731064E-20  -3.310159185426301E-18   -8.546191505898733E-17   -1.631081405376975E-15   -3.582034119557398E-15   -1.0172578554292035E-14  -1.2039670797368118E-14  1.0470462706316274E-21   1.225016863562422E-18
1.2E-5                    -2.4968828074481472E-24  -1.586816370874071E-22   -1.9337624450480277E-19  -2.3439353524256526E-17  -1.3113839017863892E-16  -3.122706584526555E-15   -9.45624956115319E-15    -2.5617103503345382E-14  -2.8258648754399868E-14  4.020098478964749E-21    3.4207306360254552E-18
1.2499999999999999E-5     -7.360690060031873E-24   -4.519219987647677E-22   -5.676417023406247E-19   -6.144426184118292E-17   -9.55137493247026E-16    -6.4029776069996884E-15  -1.9336504211755344E-14  -6.039176735855129E-14   -6.490501917075006E-14   1.2991038215503991E-20   8.28863454544028E-18
1.3E-5                    -2.3065661327603307E-23  -1.1905085015243043E-21  -1.4261874272125016E-18  -1.2015625283318346E-16  -3.247430706962594E-15   -1.6550289038198543E-14  -3.951199096134032E-14   -1.374042801057876E-13   -1.472088736118462E-13   3.467705789518292E-20    2.0689297072611333E-17
1.35E-5                   -6.948383435735001E-23   -3.412224601247172E-21   -3.529903193627614E-18   -2.730973893118962E-16   -6.792880642357421E-15   -4.340220853245324E-14   -8.858107575734023E-14   -3.082801543641655E-13   -3.282275006117757E-13   8.877670895180098E-20    5.667530159242685E-17
1.4E-5                    -1.947833635177721E-22   -1.0750405770690595E-20  -9.483446095094702E-18   -7.556422659908408E-16   -1.244824512780865E-14   -9.880967634798764E-14   -2.0158331049508197E-13  -6.784697172073251E-13   -7.188270891441226E-13   2.4532489962358075E-19   1.5298424854687184E-16
1.45E-5                   -5.45378410138875E-22    -3.1975889815571933E-20  -2.6223370420302232E-17  -2.045319737303942E-15   -2.7673286089514608E-14  -2.0165731900889566E-13  -4.3634807157640027E-13  -1.4400643741185974E-12  -1.5127407811819778E-12  7.009400572368093E-19    3.811047117323156E-16
1.4999999999999999E-5     -1.566557102773704E-21   -8.542256951230989E-20   -6.875976589905695E-17   -4.995329139017793E-15   -6.845449098080172E-14   -4.078154832291326E-13   -8.911323475230209E-13   -2.9048304807109443E-12  -2.9926246130395597E-12  1.90598214091832E-18     8.996301018714675E-16
1.55E-5                   -4.449593548419916E-21   -2.2012143168391577E-19  -1.6895694404120233E-16  -1.1282916251501763E-14  -1.5493620918689608E-13  -8.452104361094087E-13   -1.7383031871868194E-12  -5.5394731495373E-12     -5.5876821189179565E-12  4.890539972418697E-18    2.108231474558212E-15
1.6E-5                    -1.2251110674210075E-20  -5.87102914682855E-19    -4.024760137832926E-16   -2.4913650145000448E-14  -3.1734703493938387E-13  -1.7091223701491252E-12  -3.276213234213992E-12   -1.0019851601239837E-11  -1.0000477086926949E-11  1.2286355711531696E-17   4.954537653812388E-15
1.6499999999999998E-5     -3.2964924031007755E-20  -1.5909165293434E-18     -9.564747742201231E-16   -5.5602162083913924E-14  -6.242303530661566E-13   -3.2549494832435258E-12  -5.981643698979499E-12   -1.721501819757866E-11   -1.709913335767748E-11   3.085687832939271E-17    1.1442638221696555E-14
1.7E-5                    -8.749211928417636E-20   -4.168809400855189E-18   -2.2637953255754755E-15  -1.2319369430010925E-13  -1.2080796206491562E-12  -5.883664921709715E-12   -1.049053531073677E-11   -2.7812576516742775E-11  -2.724850561556385E-11   7.658032494947467E-17    2.5537955009751062E-14
1.75E-5                   -2.2983526378305737E-19  -1.0464285208060551E-17  -5.24125113660555E-15    -2.6134218105557254E-13  -2.2694529084594928E-12  -1.0204406917053981E-11  -1.7401835150278777E-11  -4.1484871760162674E-11  -3.9556380975580415E-11  1.850062037419605E-16    5.49689379542916E-14
1.8E-5                    -5.975790203140932E-19   -2.5683975161623374E-17  -1.1741365574820825E-14  -5.238009745266294E-13   -4.1020107990441846E-12  -1.6739136454681664E-11  -2.6880646960145052E-11  -5.6284310805622346E-11  -5.2126186938978105E-11  4.3507993040505476E-16   1.145968579329904E-13
1.85E-5                   -1.5309369290320507E-18  -6.254828643641979E-17   -2.5491058858973057E-14  -1.0021078313608974E-12  -7.141420022719753E-12   -2.530777619277046E-11   -3.825887895250705E-11   -6.930180617436001E-11   -6.334877147612811E-11   1.003039658059506E-15    2.317042592988814E-13
1.8999999999999998E-5     -3.84521168810434E-18    -1.5056628579854013E-16  -5.39319741220797E-14    -1.8507453616734173E-12  -1.1870342265548077E-11  -3.4788090399407635E-11  -5.005357742043231E-11   -7.839230858498461E-11   -7.260874853510494E-11   2.2709519875630367E-15   4.5281106041353937E-13
1.95E-5                   -9.4756810117847E-18     -3.548387424301421E-16   -1.1126168424740373E-13  -3.288486820349475E-12   -1.844852814632582E-11   -4.369260818286921E-11   -6.065228265200505E-11   -8.313443522255527E-11   -7.93464283906149E-11    5.0276635462269196E-15   8.506778605766474E-13
1.9999999999999998E-5     -2.3013285254574132E-17  -8.15535049187076E-16    -2.2264491991233137E-13  -5.543431221954992E-12   -2.6356296433815875E-11  -5.089566769672272E-11   -6.912816748140585E-11   -8.372846225897175E-11   -8.18602768908169E-11    1.0837254787958855E-14   1.52818777779792E-12
2.05E-5                   -5.514553706330423E-17   -1.8307722687448154E-15  -4.2946242653066057E-13  -8.751113191766301E-12   -3.4556939360051266E-11  -5.561801242896038E-11   -7.509168887168241E-11   -7.916238579822333E-11   -7.771724222188732E-11   2.2715120744961274E-14   2.61168947080327E-12
2.1E-5                    -1.2993389352251454E-16  -4.0221236401965945E-15  -7.953520604070077E-13   -1.2848855512283766E-11  -4.210263141718587E-11   -5.694627162695526E-11   -7.748765120442872E-11   -6.716910188633195E-11   -6.5184054978738E-11     4.629713066521582E-14    4.222814559418367E-12
2.1499999999999997E-5     -3.0015587279384515E-16  -8.643602577190926E-15   -1.4107591771763066E-12  -1.7502149337466426E-11  -4.83797475019728E-11    -5.381404992178418E-11   -7.402789068825139E-11   -4.616859793453257E-11   -4.369613279146493E-11   9.163571192423721E-14    6.422687516163006E-12
2.2E-5                    -6.799891205027824E-16   -1.812215159283063E-14   -2.3884708470723343E-12  -2.2102895260713904E-11  -5.255318870551578E-11   -4.548248720362289E-11   -6.255562905352203E-11   -1.643653502305902E-11   -1.3197934086523624E-11  1.7557394191171628E-13   9.141039771475085E-12
2.2499999999999998E-5     -1.5123878822132752E-15  -3.6948723269012896E-14  -3.8380739596367505E-12  -2.5897838877813593E-11  -5.296962428638167E-11   -3.181928814851727E-11   -4.274128017900687E-11   2.15066974643898E-11     2.620394203030358E-11    3.243456025953822E-13    1.2126461108927006E-11
2.3E-5                    -3.2996927685206413E-15  -7.306289229818511E-14   -5.812125392756349E-12   -2.821392893533203E-11   -4.756549992168593E-11   -1.3159357239388614E-11  -1.5451299113165913E-11  6.933213259047728E-11    7.40968718841449E-11     5.755394699626989E-13    1.496038127668803E-11
2.35E-5                   -7.045537866444049E-15   -1.3983527425997921E-13  -8.235813299864223E-12   -2.8572058794712633E-11  -3.507558739214644E-11   1.011827922776506E-11    1.9681833228475055E-11   1.3048641078225572E-10   1.3029346685656472E-10   9.776134927693268E-13    1.714633620816612E-11
2.4E-5                    -1.4693361792281014E-14  -2.584923778376449E-13   -1.0856777740962303E-11  -2.6548128171963983E-11  -1.5708080672299424E-11  3.842977970182575E-11    6.512729282500862E-11    2.068489068847054E-10    1.9589869369153677E-10   1.5838670595451623E-12   1.8228002086397026E-11
2.45E-5                   -2.989705222973379E-14   -4.601327413769574E-13   -1.3260988093823474E-11  -2.16252967234641E-11    9.488961337847244E-12    7.378709545953686E-11    1.2354843279023056E-10   2.967205848219425E-10    2.732102737498171E-10    2.4376014367045132E-12   1.7858640562820416E-11
2.4999999999999998E-5     -5.928892838169414E-14   -7.853869962924769E-13   -1.4971400938767262E-11  -1.3384790945382673E-11  3.98511187922607E-11     1.191123282927642E-10    1.956661478579099E-10    3.9682737466458793E-10   3.6385533963709006E-10   3.548638510499467E-12    1.5790854918405334E-11
2.55E-5                   -1.1437921637245443E-13  -1.2789071860130106E-12  -1.55816194522426E-11    -1.8127140267132348E-12  7.563296186928679E-11    1.757901939760021E-10    2.800968709549782E-10    5.052067666156915E-10    4.666469292401408E-10    4.868873086654113E-12    1.1836676630457645E-11
2.6E-5                    -2.141062509939561E-13   -1.9762055821298473E-12  -1.4830258767712785E-11  1.291023991882265E-11    1.17441702865729E-10     2.418602182639657E-10    3.7435575653488605E-10   6.205511916030814E-10    5.76801167351097E-10     6.280580178805393E-12    5.850798404730584E-12
2.65E-5                   -3.8779995977598837E-13  -2.882417326662802E-12   -1.256342257908834E-11   3.105746756889637E-11    1.6529342941241926E-10   3.132563533563062E-10    4.755677778493146E-10    7.391732612937431E-10    6.869778898842842E-10    7.606858615005044E-12    -2.293192912338242E-12
2.7E-5                    -6.777676202401512E-13   -3.9463623824831204E-12  -8.647390908025756E-12   5.341688432376736E-11    2.182698889751897E-10    3.8698400529594743E-10   5.809329674233858E-10    8.544749468604474E-10    7.897639468481244E-10    8.638159556666366E-12    -1.2773230558482305E-11
2.7499999999999998E-5     -1.1397336134692203E-12  -5.039244131095647E-12   -2.945225977998907E-12   8.033800800763823E-11    2.7502807810569364E-10   4.6259534900376177E-10   6.881202574675158E-10    9.59524525765012E-10     8.801622714333458E-10    9.157233109503424E-12    -2.5843818734675168E-11
2.8E-5                    -1.8381662056509694E-12  -5.954585080256874E-12   4.6329422461264674E-12   1.10967504940607E-10     3.3447323273992147E-10   5.401292164284051E-10    7.946914091011848E-10    1.0482061957079185E-9    9.555593798386773E-10    8.952934381905853E-12    -4.167264860032741E-11
2.8499999999999998E-5     -2.832829070183064E-12   -6.447013992787385E-12   1.4120458175574809E-11   1.438729213291039E-10    3.956726308258356E-10    6.166265974016975E-10    8.960783625312837E-10    1.1131936248829443E-9    1.0123765010211748E-9    7.832224736270975E-12    -6.006727399639585E-11
2.9E-5                    -4.153938286452379E-12   -6.309101979169007E-12   2.5569605846076885E-11   1.7821261224507997E-10   4.568921679378804E-10    6.850100566305544E-10    9.836067253121129E-10    1.1448407908386647E-9    1.0428574002975725E-9    5.64012154304469E-12     -8.040866004637628E-11
2.95E-5                   -5.7675369790580735E-12  -5.447747116818576E-12   3.9065121588944436E-11   2.1366740444410632E-10   5.147223862644646E-10    7.367232472461208E-10    1.0451067962835763E-9    1.133458438034419E-9     1.0360550019499152E-9    2.2745454229825037E-12   -1.0194361009299099E-10
2.9999999999999997E-5     -7.540431833996714E-12   -3.897700637518135E-12   5.455430943686096E-11    2.492199743231479E-10    5.643169920755581E-10    7.653481762109548E-10    1.0688609502402059E-9    1.0709406937067897E-9    9.817231380024487E-10    -2.3236021306521214E-12  -1.2413225497576372E-10
3.05E-5                   -9.221962332269254E-12   -1.743665562121173E-12   7.167045811136255E-11    2.8263051628234114E-10   6.005026452656131E-10    7.670932195374897E-10    1.0477151834820418E-9    9.483596595535786E-10    8.721547852034653E-10    -8.191336198741274E-12   -1.4660670389301485E-10
3.1E-5                    -1.0460858874533175E-11  9.9453629661654E-13      8.985164524895813E-11    3.1124021261085313E-10   6.18432864884659E-10     7.377500632051139E-10    9.784792807344506E-10    7.538969657931483E-10    7.007918466196729E-10    -1.5338524553607918E-11  -1.6871902076260933E-10
3.15E-5                   -1.0864323173714095E-11  4.409691537421357E-12    1.0869660346501344E-10   3.326561470790193E-10    6.131270669966037E-10    6.702807083261151E-10    8.56303509287875E-10     4.765634774072238E-10    4.610913121949578E-10    -2.372371881105891E-11   -1.8913475749306127E-10
3.2E-5                    -1.008706653019983E-11   8.638775476456005E-12    1.2806992878760197E-10   3.4440448654204084E-10   5.788757031721306E-10    5.564038950275854E-10    6.706266886099371E-10    1.1190253911329847E-10   1.4730571788072307E-10   -3.3269874993146153E-11  -2.0588705878939505E-10
3.25E-5                   -7.920335099576714E-12   1.3741693166912608E-11   1.4762468946500208E-10   3.4357154971372785E-10   5.097060192534108E-10    3.901218654813244E-10    4.088108090321355E-10    -3.3870990543972275E-10  -2.4472390028812413E-10  -4.392300296268595E-11   -2.1683643769894485E-10
3.2999999999999996E-5     -4.340187961489719E-12   1.963294727077862E-11    1.6608424623140736E-10   3.2723688698937954E-10   4.004810339156959E-10    1.686141563216465E-10    6.433095041077872E-11    -8.742880056378197E-10   -7.171731439330965E-10   -5.5636010016580414E-11  -2.2012805476040353E-10
3.35E-5                   5.276125030467812E-13    2.6103915863718644E-11   1.81042979930539E-10     2.927481239308417E-10    2.4724167556402544E-10   -1.1006138878629152E-10  -3.6000190316415044E-10  -1.4959417172911174E-9   -1.2682286533041867E-9   -6.818678943654494E-11   -2.1430272745245472E-10
3.4E-5                    6.5457138162804866E-12   3.289893082976274E-11    1.8968180915169563E-10   2.371134909263466E-10    4.6660840465886193E-11   -4.483080028384698E-10   -8.576748614136374E-10   -2.2002487164167427E-9   -1.8889773819081284E-9   -8.096571943213744E-11   -1.9803738536289456E-10
3.45E-5                   1.3753189497838597E-11   3.9813064633076976E-11   1.8993932965111358E-10   1.5672933788287588E-10   -2.0401462564722714E-10  -8.466021327933877E-10   -1.425895019591436E-9    -2.972750062120911E-9    -2.5627676973700404E-9   -9.300169216050877E-11   -1.6975916138514467E-10
3.5E-5                    2.245168710219082E-11    4.679029218842715E-11    1.8111279184500907E-10   4.859042371213387E-11    -5.057800542995672E-10   -1.3000294400036105E-9   -2.065245007107858E-9    -3.789189709178876E-9    -3.2681537688345436E-9   -1.0327539325652269E-10  -1.274340556590877E-10
3.5499999999999996E-5     3.302716249972705E-11    5.3926094584712425E-11   1.6321531604843061E-10   -8.822246078215879E-11   -8.564494358066588E-10   -1.7980857731612015E-9   -2.7710094213103577E-9   -4.620476787457421E-9    -3.982001887135981E-9    -1.1101265714262826E-10  -6.870276885195936E-11
3.6E-5                    4.5532748511567956E-11   6.12326855458809E-11     1.3558423518668702E-10   -2.526603122160595E-10   -1.250272033222473E-9    -2.327665478354262E-9    -3.5251416062743616E-9   -5.433685857861785E-9    -4.6793183110809675E-9   -1.1563369258590164E-10  8.639904790243303E-12
3.65E-5                   5.935564042157567E-11    6.821221757066897E-11    9.614572028268854E-11    -4.4303653928106486E-10  -1.6784992913114048E-9   -2.8747915437867753E-9   -4.2967964350439525E-9   -6.189718470944262E-9    -5.330479481495825E-9    -1.1641704336997845E-10  1.0595598586320374E-10
3.7E-5                    7.33686142299058E-11     7.36125553558966E-11     4.221058751326779E-11    -6.575391684100857E-10   -2.1298819454516625E-9   -3.4223338869617936E-9   -5.049577204034625E-9    -6.8436255793635474E-9   -5.8997275543717785E-9   -1.1225235246942549E-10  2.2312450713395122E-10
3.75E-5                   8.658127030285416E-11    7.577485808685179E-11    -2.79719954189677E-11    -8.931911283072218E-10   -2.5905610944565752E-9   -3.946429455613122E-9    -5.747152233606077E-9    -7.348586312439593E-9    -6.347683037120095E-9    -1.0174103210047695E-10  3.583052298642992E-10
3.7999999999999995E-5     9.87169074248604E-11     7.347790358372538E-11    -1.1452537575995322E-10  -1.1444150981406433E-9   -3.0436150933497975E-9   -4.416326919082971E-9    -6.352611312819516E-9    -7.65901355759295E-9     -6.635986486734226E-9    -8.354870222553987E-11   5.08273926855211E-10
3.85E-5                   1.1001764098684475E-10   6.656896245263502E-11    -2.1662509175186674E-10  -1.4023845037583247E-9   -3.4685726859789637E-9   -4.798460380296324E-9    -6.8246807276156546E-9   -7.730370574409463E-9    -6.729093205958131E-9    -5.6726133963046273E-11  6.689758622093787E-10
3.9E-5                    1.202612970883683E-10    5.569945305160111E-11    -3.333452712294167E-10   -1.6553988576815763E-9   -3.8409159453314745E-9   -5.060845263929215E-9    -7.116249259378767E-9    -7.517942352497176E-9    -6.59150004662966E-9     -2.0807791855187932E-11  8.356609995892618E-10
3.95E-5                   1.2787704850839268E-10   4.131196204517433E-11    -4.6340665571209735E-10  -1.890053669499279E-9    -4.131889867793338E-9    -5.174057805290106E-9    -7.177061724008751E-9    -6.977284443880226E-9    -6.184973559818804E-9    2.4308645440931725E-11   1.0024571199825281E-9
3.9999999999999996E-5     1.3014206068502733E-10   2.284451393145827E-11    -6.041354591012989E-10   -2.092606673213972E-9    -4.30954514792632E-9     -5.109389818686648E-9    -6.958742214075484E-9    -6.066907241301218E-9    -5.471061288762224E-9    7.855569468038633E-11    1.1619820982381603E-9
4.0499999999999995E-5     1.2445424361416154E-10   -1.03189637744919E-12    -7.509431319251078E-10   -2.2495206476307716E-9   -4.341534237110359E-9    -4.837778938903043E-9    -6.419384288683181E-9    -4.752718619491182E-9    -4.418225304641031E-9    1.417699743774487E-10    1.30554880242317E-9
4.1E-5                    1.095728417682525E-10    -3.1384385639113743E-11  -8.978220177517134E-10   -2.3467537650028576E-9   -4.198558016519262E-9    -4.331562749170083E-9    -5.525909134516846E-9    -3.0134261999712803E-9   -3.0085071539228754E-9   2.1353593962707115E-10   1.4237351344177135E-9
4.15E-5                   8.570244503405814E-11    -6.825143924865228E-11   -1.0380815117854111E-9   -2.3688299425103597E-9   -3.856501522532558E-9    -3.5675889369323117E-9   -4.254474684052052E-9    -8.451821810666833E-10   -1.2403837541429564E-9   2.9288050563483093E-10   1.5067460809810247E-9
4.2E-5                    5.342036936632017E-11    -1.1081982128523197E-10  -1.1645850469949561E-9   -2.2991793058358354E-9   -3.296697079464491E-9    -2.5294241449925528E-9   -2.591178693574698E-9    1.7364345220677237E-9    8.716593841392424E-10    3.780472272755046E-10    1.5445093400250537E-9
4.2499999999999996E-5     1.2533645345456223E-11   -1.5812673976484626E-10  -1.2696972551580467E-9   -2.121994235924467E-9    -2.505727501128607E-9    -1.208822835302475E-9    -5.348588621377955E-10   4.697132559374218E-9     3.298629006848726E-9     4.665128355939176E-10    1.5268732783307895E-9
4.2999999999999995E-5     -3.8083556883825104E-11  -2.0936311394014166E-10  -1.3453830681516107E-9   -1.8244353900627364E-9   -1.4761416117119239E-9   3.9196717588631924E-10   1.8989048456439114E-9    7.984936846554843E-9     5.997568871104911E-9     5.55166601202103E-10     1.4439791995526853E-9
4.35E-5                   -9.962685468145774E-11   -2.634689138485171E-10   -1.383259353225129E-9    -1.3978493928186885E-9   -2.0790012987873091E-10  2.257414288900424E-9     4.675283412657352E-9     1.1528960549458266E-8    8.910254312642445E-9     6.404001478681456E-10    1.2865755706822704E-9
4.4E-5                    -1.7231641750177497E-10  -3.185729804403403E-10   -1.3742925441308527E-9   -8.375816790645481E-10   1.2902071354193797E-9    4.35762140762367E-9      7.740891514241613E-9     1.5236115479410648E-8    1.1961210410453452E-8    7.179535880664657E-10    1.0464001978293746E-9
4.45E-5                   -2.549890298135484E-10   -3.719071690075388E-10   -1.3086576384760876E-9   -1.4222478369473703E-10  2.9992186062748415E-9    6.649322759954745E-9     1.1026663299163047E-8    1.898916113717984E-8     1.5057541497222462E-8    7.826654140740523E-10    7.171096915187192E-10
4.4999999999999996E-5     -3.454273328351044E-10   -4.202256160544351E-10   -1.1765782424037088E-9   6.861160270096044E-10    4.888564660665927E-9     9.076494779451636E-9     1.444955568002942E-8     2.2649457329980816E-8    1.8091700726215272E-8    8.284810574411893E-10    2.9572683805097823E-10
4.5499999999999995E-5     -4.4091974857536264E-10  -4.603280370305199E-10   -9.69926017604389E-10    1.6396703366450181E-9    6.915012269269756E-9     1.156910962100848E-8     1.7910125870345888E-8    2.6063780206843838E-8    2.09456657118735E-8      8.48934184425119E-10     -2.1622857291533414E-10
4.6E-5                    -5.385445562481592E-10   -4.893602904460377E-10   -6.833903688542722E-10   2.702040299261802E-9     9.022563050428347E-9     1.4042207161736897E-8    2.1287383715174224E-8    2.9070795225742725E-8    2.349430577538301E-8     8.378926606124782E-10    -8.12612066132843E-10
4.65E-5                   -6.350712898023897E-10   -5.047916875696419E-10   -3.14656433020035E-10    3.846662935940263E-9     1.1143149727363992E-8    1.6398159182345964E-8    2.4437089457045364E-8    3.150421426179354E-8     2.5607813710436765E-8    7.90063085658549E-10     -1.48315810235437E-9
4.7E-5                    -7.266739690178076E-10   -5.041036099654144E-10   1.35636807510526E-10     5.0377865046267015E-9    1.3197729141884388E-8    1.8531556999532608E-8    2.7198418370283405E-8    3.319504035987312E-8     2.7155176690828756E-8    7.009552855758992E-10    -2.213667863167948E-9
4.7499999999999996E-5     -8.086546953796268E-10   -4.843990047567839E-10   6.63320968290405E-10     6.232893340375463E-9     1.5098018195542588E-8    2.0333503456100947E-8    2.9406378521920017E-8    3.3977520201846324E-8    2.8010006296239704E-8    5.666004640293544E-10    -2.9855893263594503E-9
4.8E-5                    -8.752714910815039E-10   -4.4232430684863206E-10  1.259871824637064E-9     7.384794170195353E-9     1.6749376754214032E-8    2.169379103860844E-8     3.090211688658203E-8     3.3699216121901334E-8    2.8057510887725497E-8    3.836596005749317E-10    -3.7756248581537515E-9
4.85E-5                   -9.197477780731275E-10   -3.745565235429691E-10   1.912302830671658E-9     8.44274050085116E-9      1.8054425723136747E-8    2.2502919533680815E-8    3.153689669547284E-8     3.223090307545459E-8     2.7200401934413638E-8    1.5018535150309896E-10   -4.5559550614423E-9