% Model:              Untitled.mph
% Version:            COMSOL 6.0.0.405
% Date:               Jul 16 2025, 14:39
% Dimension:          1
% Nodes:              401
% Expressions:        11
% Description:        Point graph
% Time (s)                Displacement field, Y component Displacement field, Y component Displacement field, Y component Displacement field, Y component Displacement field, Y component Displacement field, Y component Displacement field, Y component Displacement field, Y component Displacement field, Y component Displacement field, Y component Displacement field, Y component
0                         1.139478644325626E-33    4.8269954411303154E-33   1.8511153546530987E-32   1.4466930522346942E-31   1.4094351947028006E-31   4.039589535550918E-33    1.6240443753580147E-32   1.4849108679736834E-33   -1.7623073935267627E-32  -3.128980087462267E-33   -2.8736215345760496E-32
5.0E-7                    1.4515272453751027E-25   1.7402031321171075E-25   2.847684726799564E-23    9.241654101281548E-23    -1.5309991302293983E-22  9.648971908061458E-25    -1.6047147169890534E-24  1.2081940212664097E-25   2.015045960033599E-24    2.1067562133658566E-25   -5.031597901170168E-25
1.0E-6                    -2.16529374529274E-24    -6.751513400640827E-24   -1.2531338408340275E-22  -7.916311412271591E-22   -2.0936245362253956E-22  -8.323926316033068E-24   -1.644027234473221E-24   -2.5123151145497806E-24  -1.2422147225357246E-23  4.68668937965668E-24     2.2680026220311936E-24
1.5E-6                    6.617627285776234E-24    2.0306578538904125E-23   4.1761305873957116E-23   1.7177782385817785E-21   4.64484498999861E-21     2.0234948351661158E-23   5.93117478744313E-24     5.651903559592805E-24    3.9535793113750295E-23   -1.9802952929130242E-23  1.759951115630366E-23
2.0E-6                    -7.180186906170163E-24   -1.7998751154390832E-23  5.311600845341388E-23    -2.5464235511467483E-21  -6.122965735657449E-21   6.033980307917345E-23    3.115247445523303E-23    1.3785821638497358E-23   8.522746144115057E-23    -3.3702870371128665E-23  -1.425303093309872E-22
2.4999999999999998E-6     1.2084803087582193E-23   1.2271801021675807E-22   1.1159768189625391E-21   1.510371866776812E-20    -1.489750049047199E-20   -1.122954890195614E-22   -3.660390726275498E-23   -3.643285072484025E-23   -6.123418505373066E-22   1.1583713097797063E-22   -1.6650191954977817E-22
3.0E-6                    -4.7965175435721806E-23  -4.517044167298229E-22   -5.372406342332823E-22   3.45514593816334E-21     3.4999115452635226E-21   8.787599855746057E-22    -2.3114778048963432E-22  -1.4928012179116376E-22  1.7181363819986047E-22   1.166115173477858E-22    -2.7325222884463233E-22
3.5E-6                    -1.217101836178889E-22   -3.6908687926270324E-22  -7.317397284545612E-21   -1.3332411407047813E-19  2.476115555249448E-20    4.921134602238977E-21    6.856362898479233E-22    3.1275884443508777E-22   2.05844734253988E-21     -1.0611364493858182E-21  -3.713273036156279E-21
4.0E-6                    6.431227667606168E-22    3.133604877915466E-21    1.9534541814393428E-21   -3.0741632774893648E-21  1.9893676407969127E-19   1.5081238231202599E-21   2.416465757559604E-21    9.431277382077595E-22    9.984075132526609E-22    2.440681428006233E-22    -8.2064695602331115E-22
4.5E-6                    1.080798177556698E-21    4.0840426475218267E-22   2.7357186887370994E-20   4.579412346060956E-19    2.2383619916254506E-19   1.448810251683064E-20    2.798565443189416E-22    -1.211896747063952E-21   -4.824829515184065E-21   7.326895503841916E-21    -1.3904796209844832E-20
4.9999999999999996E-6     -4.197711714023406E-21   -8.804185775087184E-21   4.481827694317236E-20    3.476506247305715E-19    -9.990107539242238E-19   1.0896053570392913E-19   -6.2617860334074394E-21  -4.969879803013902E-21   -1.726475320789576E-20   -5.22310012540608E-21    -1.1375631300308776E-19
5.5E-6                    -1.0151592733581209E-20  -5.56858497817158E-21    6.013268760287113E-21    -5.191626156865566E-19   -2.194544530204688E-18   1.0445464297250882E-19   2.819025720869464E-20    2.347152929895952E-21    -3.710656313039036E-21   -7.016736319211252E-20   -9.441813759777006E-20
6.0E-6                    1.9416273860636586E-20   8.405106175205165E-21    -1.134467304529975E-19   -2.0614756353302205E-18  1.740237680552217E-18    -1.101211196842578E-19   1.367111638260449E-19    2.593879253519683E-20    4.1598507168215734E-20   -1.2933928363743237E-19  -7.48174109768148E-21
6.5E-6                    7.671120780981756E-20    5.916653667964649E-20    5.1156304126691295E-19   -1.881845036615752E-18   1.1037558028112275E-17   8.694971396984908E-19    1.8326983624391295E-19   2.059812342799095E-20    7.347613540574911E-20    -2.138822428414408E-19   -1.8103872985829365E-18
7.0E-6                    -3.521551970263333E-20   8.088673020168254E-20    2.8810110060241555E-18   7.921733749754781E-18    1.1831406050089203E-17   4.61871088996042E-18     2.895106138197957E-19    -5.723795809819236E-20   8.614692228878189E-20    -1.1182134551606517E-18  -6.207801580725662E-18
7.499999999999999E-6      -4.22648468996529E-19    -2.164645928676045E-19   3.1169919059645993E-18   1.8882622942942625E-17   -1.2912848594950166E-17  8.17386543420311E-18     1.6373228010212086E-18   -4.2714678057033034E-20  -1.1079156855480386E-18  -3.7146990925735095E-18  -8.575366168161001E-18
8.0E-6                    -2.6399639140842367E-19  -2.354289797467388E-19   -3.2156498514069292E-18  -1.4625987058827975E-18  -4.376809149998732E-17   1.2722347567934456E-17   5.504545710839052E-18    4.1481991924218855E-19   -5.0915290890254876E-18  -5.78170083718676E-18    -1.533785353943542E-17
8.5E-6                    1.6697539525357852E-18   1.3756505586541002E-18   6.049683213871097E-18    -3.218461920161561E-17   1.8179004226403255E-17   5.194503696775688E-17    1.2128734529225814E-17   1.2166716191967577E-18   -4.1231859173987425E-18  -6.670531987588452E-18   -6.605465558570791E-17
9.0E-6                    3.1760825068988313E-18   2.107602109336164E-18    7.84257921514193E-17     2.6599487486208138E-17   2.7730157859283825E-16   1.8230960052603643E-16   2.791095835424029E-17    1.7296904602785646E-18   1.3687399787356947E-17   -3.083091386500518E-17   -2.1065302232844093E-16
9.499999999999999E-6      -2.8694379148000727E-18  -1.2664935176164293E-18  1.95848511717213E-16     1.8865229686293984E-16   5.842637028994259E-16    4.1034796814255696E-16   7.894544180366944E-17    3.2855097650190587E-18   8.946691273838893E-18    -1.3595247079302044E-16  -4.713515497155808E-16
9.999999999999999E-6      -1.529304685524129E-17   4.5741965978646834E-18   2.447877502418166E-16    3.2790309055528575E-16   5.515347410745302E-16    7.776373613332537E-16    2.1173088513101225E-16   1.205199509844941E-17    -1.206118200398862E-16   -3.5543641125262766E-16  -9.051668960635772E-16
1.05E-5                   -6.166081405573525E-18   3.734180379224592E-17    3.3117737985647925E-16   4.534502230916623E-16    4.76336511312584E-16     1.7749648735785906E-15   4.909603227844839E-16    3.746569422326062E-17    -3.45960489048746E-16    -6.758400213488807E-16   -1.843337723175155E-15
1.1E-5                    5.112542551134365E-17    6.590647892464525E-17    1.1960102600214034E-15   8.678744086429893E-16    2.2818358222046106E-15   4.4578025130635835E-15   1.0547536059901247E-15   9.261093584018352E-17    -3.693523698355845E-16   -1.2903634005976579E-15  -4.1900279142011974E-15
1.15E-5                   9.396706127973816E-17    5.3837663623890093E-17   3.7911102491807886E-15   2.047260477418242E-15    8.030598716827015E-15    9.560013886445713E-15    2.265284451820397E-15    2.0970306770866128E-16   -2.0522140682431438E-16  -3.03734041354665E-15    -9.286914348539616E-15
1.2E-5                    -2.2420715868233402E-17  1.5756847401429754E-16   7.974678294434728E-15    4.72684087658959E-15     1.6158751014394596E-14   1.7027918583571142E-14   4.88505014290189E-15     4.714018840544919E-16    -1.130472151002103E-15   -7.296228436836029E-15   -1.8077670056665147E-14
1.2499999999999999E-5     -2.507245047016331E-16   7.332353265020325E-16    1.2785860332132454E-14   9.988301772356671E-15    2.188034755773876E-14    2.8189336386289125E-14   1.0080063741052294E-14   1.0659152324039566E-15   -4.990925250907729E-15   -1.5002624245783534E-14  -3.074042361495571E-14
1.3E-5                    -1.0670088897185267E-16  1.8839305955538976E-15   2.073653776683631E-14    1.9164020847011452E-14   2.7744783494019454E-14   4.8293177234747156E-14   1.9148797287604702E-14   2.3600526121237225E-15   -1.1268792771231295E-14  -2.6758227608493616E-14  -4.85454265234268E-14
1.35E-5                   8.465747846565044E-16    3.2190662455385805E-15   4.2653472288251586E-14   3.499010653770495E-14    5.309890107152083E-14    8.456762756616876E-14    3.360512196718393E-14    4.8917045558560625E-15   -1.6463633793425714E-14  -4.716785480364336E-14   -7.878489410696805E-14
1.4E-5                    1.9682515437399766E-15   4.8701089503023885E-15   9.375065219364788E-14    6.356301939889768E-14    1.1786453309500172E-13   1.438132435949768E-13    5.719283362518612E-14    9.36094330439335E-15     -2.1613429778017397E-14  -9.038038510993323E-14   -1.4310779340625488E-13
1.45E-5                   1.7572964549957421E-15   9.38880616901858E-15     1.791767970493995E-13    1.126869369662233E-13    2.120793629384206E-13    2.4223819655681704E-13   1.0071982445491442E-13   1.72403138322485E-14     -4.30128585622513E-14    -1.7551432583267649E-13  -2.820523278863368E-13
1.4999999999999999E-5     3.9264902398161923E-16   2.2317621005204957E-14   2.9069751575934273E-13   1.8929413350834517E-13   3.193324574820975E-13    4.258903523116693E-13    1.865232723392145E-13    3.2114750391848673E-14   -1.0717992294149383E-13  -3.1374104927052836E-13  -5.340131817044834E-13
1.55E-5                   1.9062816470310214E-15   4.9379513967882064E-14   4.460594677671623E-13    3.1464319627551114E-13   5.074027320013146E-13    7.724638759548971E-13    3.44546835999419E-13     5.995833472541083E-14    -2.2314857890129462E-13  -5.211950790520962E-13   -8.938104450483978E-13
1.6E-5                    1.187692547037966E-14    9.236603644728033E-14    7.542953333736166E-13    5.637484512252719E-13    9.463287984664388E-13    1.358522148396552E-12    5.986082833882549E-13    1.0772421716844816E-13   -3.722689221543646E-13   -8.782422482206261E-13   -1.349046189473768E-12
1.6499999999999998E-5     3.1870299231767906E-14   1.5396484841716703E-13   1.4142397909966614E-12   1.0722097133046423E-12   1.7664785592448532E-12   2.263540442533869E-12    9.71423435111206E-13     1.8585609853231568E-13   -5.732944955716791E-13   -1.5772380922550511E-12  -2.101635038977644E-12
1.7E-5                    5.809015558052904E-14    2.627554878460523E-13    2.608474064646223E-12    1.9289497028382106E-12   3.00525412402068E-12     3.745445614550446E-12    1.5637996148938973E-12   3.199895640358494E-13    -9.923576642863534E-13   -2.9059552747252565E-12  -3.8270599369233824E-12
1.75E-5                   8.976279413238651E-14    5.045247430043295E-13    4.495572494201029E-12    3.0501380148717952E-12   4.926860845157057E-12    6.54960898158318E-12     2.7110524582541018E-12   5.616805521779608E-13    -1.9615647115340415E-12  -5.273222365549832E-12   -7.532046675455465E-12
1.8E-5                    1.4527152897369907E-13   1.0153147493800055E-12   7.548726303025724E-12    4.405531917484421E-12    8.37899296846893E-12     1.1924590247174735E-11   5.06814775591705E-12     9.84870312811235E-13     -3.856914857169272E-12   -9.367519117820472E-12   -1.3810771005428994E-11
1.85E-5                   2.792974294328721E-13    1.933303014382088E-12    1.2911049909960047E-11   6.7710757084398896E-12   1.4470534486585676E-11   2.0866433144669337E-11   9.392006988980076E-12    1.6966231364084432E-12   -7.0074039829674934E-12  -1.6106554001496067E-11  -2.2089114394211788E-11
1.8999999999999998E-5     5.896334310335687E-13    3.424742868597491E-12    2.1823504325205507E-11   1.2216757518564025E-11   2.3617961526067877E-11   3.2884889515406765E-11   1.600533890054903E-11    2.921931211537697E-12    -1.1757283787899652E-11  -2.5855664887672262E-11  -3.079692302936201E-11
1.95E-5                   1.2002118727077863E-12   5.8877426975188645E-12   3.391005898768839E-11    2.2915367444146324E-11   3.4897281626248727E-11   4.549162791556181E-11    2.4348284767246592E-11   5.124332847140742E-12    -1.8425556841876773E-11  -3.729037040340128E-11   -3.84933462333624E-11
1.9999999999999998E-5     2.2368775987256143E-12   1.0122045535835924E-11   4.602141037083492E-11    3.8261259765696234E-11   4.6138133212735186E-11   5.5219617914905866E-11   3.3135430833612504E-11   8.942330301662258E-12    -2.686103189632924E-11   -4.7362754879327925E-11  -4.466318769915905E-11
2.05E-5                   3.8733908394039775E-12   1.697048400565705E-11    5.37564858383403E-11     5.302755351349107E-11    5.424667069726754E-11    5.932716455715145E-11    4.1083825135038585E-11   1.476068573354694E-11    -3.5922436989977E-11     -5.309446371548424E-11   -4.909623281466236E-11
2.1E-5                    6.5005615791263166E-12   2.6342708356251512E-11   5.496013736077799E-11    5.968487809593065E-11    5.57524400295668E-11     5.6525015099870106E-11   4.744148303015407E-11    2.21648830411306E-11     -4.363670557204173E-11   -5.361220291404724E-11   -5.063433795170455E-11
2.1499999999999997E-5     1.08503197123629E-11     3.649040088697562E-11    5.138458032649358E-11    5.4042705470438196E-11   4.838141105345349E-11    4.6397435186478416E-11   5.161110428388544E-11    2.991437418629861E-11    -4.812277671053982E-11   -5.009921336879549E-11   -4.716397613256822E-11
2.2E-5                    1.7692965696791233E-11   4.461039839946444E-11    4.6010242459014563E-11   3.8958606753402406E-11   3.2996908195407074E-11   2.886805516577758E-11    5.2254404424794096E-11   3.672980574861527E-11    -4.840959255503336E-11   -4.369811064521899E-11   -3.7164653965973495E-11
2.2499999999999998E-5     2.6997708184510848E-11   4.85174346300347E-11     3.867746119211925E-11    2.1929234248294477E-11   1.320984551470609E-11    4.613588381011596E-12    4.7173353787896765E-11   4.221919875456904E-11    -4.444683069864691E-11   -3.3898935036049455E-11  -2.0847001869269118E-11
2.3E-5                    3.7238120009821897E-11   4.768932029394447E-11    2.525755628524734E-11    8.592235680703242E-12    -8.230086665662182E-12   -2.452905874930696E-11   3.458557696808797E-11    4.681660972654272E-11    -3.660359099915635E-11   -1.912868835491008E-11   6.372260692389236E-13
2.35E-5                   4.590145327020547E-11    4.259003474748145E-11    1.6225764453539247E-12   -1.6570296966307285E-12  -3.2515164524289136E-11  -5.641052466571572E-11   1.4610381846064098E-11   5.054723675191356E-11    -2.524667094223397E-11   1.6792034331625612E-12   2.670948789255887E-11
2.4E-5                    5.1248351404243096E-11   3.3329702645113105E-11   -3.227465466286935E-11   -1.4432450078911062E-11  -6.303525690489776E-11   -9.002958835625373E-11   -1.0795131838541994E-11  5.192195514315748E-11    -1.0412305228378994E-11  2.874416766969016E-11    5.7506072043602575E-11
2.45E-5                   5.3667242186583264E-11   1.9474567231999354E-11   -7.307637641965298E-11   -3.5848368835228556E-11  -1.0036479902402856E-10  -1.2574575371514244E-10  -3.942773470688919E-11   4.8397713014801893E-11   8.597139807446488E-12    6.24595883089193E-11     9.285843349979805E-11
2.4999999999999998E-5     5.480590255810803E-11    1.0558526763922176E-12   -1.1817524764927973E-10  -6.918443099845174E-11   -1.404287198253438E-10   -1.638968592386844E-10   -7.009557601044267E-11   3.810360630806126E-11    3.332513627903789E-11    1.0384946538826076E-10   1.3211912623757569E-10
2.55E-5                   5.4955368463499514E-11   -2.086746930293399E-11   -1.676105805323052E-10   -1.1433363438831801E-10  -1.7890188225523116E-10  -2.0373836135186453E-10  -1.0255903949996541E-10  2.089721189303386E-11    6.546612378005174E-11    1.5329419501667497E-10   1.7527687484736812E-10
2.6E-5                    5.1490269387762375E-11   -4.49770856501298E-11    -2.2130045089140404E-10  -1.684740622765982E-10   -2.1677164506520931E-10  -2.4430808834257974E-10  -1.3736623744844313E-10  -2.5210799171942685E-12  1.055958343751181E-10    2.0889523309431824E-10   2.2347618412401995E-10
2.65E-5                   4.0316491536481686E-11   -7.085568049473047E-11   -2.7588573884470467E-10  -2.2645658955455951E-10  -2.5960041661446873E-10  -2.8607594100099046E-10  -1.7647711467709088E-10  -3.2363736767029224E-11  1.5232904707764742E-10   2.667981492889152E-10    2.776589088699404E-10
2.7E-5                    1.8819440924206267E-11   -9.935849072528698E-11   -3.2618419724369363E-10  -2.813951137063853E-10   -3.1015566165238545E-10  -3.3073046602664013E-10  -2.2313096564795104E-10  -7.021097748833092E-11   2.0278637770717912E-10   3.236920378594452E-10    3.366028157552308E-10
2.7499999999999998E-5     -1.2928685162066073E-11  -1.321515773822734E-10   -3.6990301346857635E-10  -3.266635288820697E-10   -3.624739841182787E-10   -3.784751800946267E-10   -2.7949584533105776E-10  -1.1758433732892766E-10  2.542433289275756E-10    3.789098117146823E-10    3.9647094088342417E-10
2.8E-5                    -5.360186631098731E-11   -1.708931793957428E-10   -4.0959876500414753E-10  -3.5897724829718583E-10  -4.045668251943131E-10   -4.2541019309015554E-10  -3.440280753111141E-10   -1.7434768125365798E-10  3.056756734730743E-10    4.3358149202803814E-10   4.522416183437381E-10
2.8499999999999998E-5     -1.0237155020889264E-10  -2.1625899950953714E-10  -4.4906417241611786E-10  -3.8038024052787685E-10  -4.2728258207155107E-10  -4.6384057095221975E-10  -4.1174171498628685E-10  -2.3880875963942084E-10  3.5770906419003164E-10   4.87437428656481E-10     4.994571349547459E-10
2.9E-5                    -1.5891385742555337E-10  -2.67180745861764E-10    -4.877470306964358E-10   -3.9704005008029625E-10  -4.298373631668456E-10   -4.852381283035584E-10   -4.770092335678987E-10   -3.092869575609817E-10   4.108063187640488E-10    5.365374168480035E-10    5.346530538574563E-10
2.95E-5                   -2.2250270508991087E-10  -3.210497152115646E-10   -5.18542794046086E-10    -4.149165857435679E-10   -4.16639020938693E-10    -4.830642423099097E-10   -5.352682464129665E-10   -3.850413879708381E-10   4.6327904195428207E-10   5.742010946272986E-10    5.544293621508821E-10
2.9999999999999997E-5     -2.919433630799386E-10   -3.749771075095834E-10   -5.305273346368508E-10   -4.3469860988249307E-10  -3.898409923937421E-10   -4.537488828958476E-10   -5.820091660046E-10      -4.6501713791632913E-10  5.108975801109076E-10    5.938657575756837E-10    5.546473819841551E-10
3.05E-5                   -3.6601025857696674E-10  -4.269520998235528E-10   -5.139756820040511E-10   -4.4908592515384333E-10  -3.4568085425395027E-10  -3.966243645931453E-10   -6.11415415700784E-10    -5.454263171205114E-10   5.481739374170906E-10    5.906614537210187E-10    5.30901883560514E-10
3.1E-5                    -4.429532562338319E-10   -4.756782355990722E-10   -4.638374025104624E-10   -4.442652352325373E-10   -2.770864605672227E-10   -3.135576140289766E-10   -6.171542918336924E-10   -6.189760530040665E-10   5.697646346365477E-10    5.603818149585626E-10    4.794848018148613E-10
3.15E-5                   -5.196134820634376E-10   -5.19216673358877E-10    -3.7960861575055177E-10  -4.0503605648567944E-10  -1.783712079260546E-10   -2.0707026105870674E-10  -5.944900788533634E-10   -6.772230698242716E-10   5.706486032237573E-10    4.978639807356557E-10    3.9717387383895495E-10
3.2E-5                    -5.920647744381261E-10   -5.536428047777334E-10   -2.626714481578497E-10   -3.2068839750155955E-10  -4.727096236273071E-11   -7.634777774351422E-11   -5.409912854445241E-10   -7.140504935399481E-10   5.453620784068383E-10    3.9744413878073775E-10   2.79922933578294E-10
3.25E-5                   -6.573334393850826E-10   -5.726463689942276E-10   -1.1409866867433506E-10  -1.881328116436016E-10   1.1636701617602925E-10   8.567032289951022E-11    -4.5466977972269276E-10  -7.265762264907322E-10   4.878030823023202E-10    2.553165784804327E-10    1.2254334149606038E-10
3.2999999999999996E-5     -7.131751801207345E-10   -5.680681680197847E-10   6.553668952752443E-11    -1.0938897104157355E-11  3.125477988461015E-10    2.895513903331668E-10    -3.3129708830872935E-10  -7.123316996818937E-10   3.9259935747317066E-10   7.094760705711263E-11    -7.940642394118746E-11
3.35E-5                   -7.550679400417284E-10   -5.309450673494447E-10   2.758614890687544E-10    2.0384324607954693E-10   5.408553149963533E-10    5.412699461466055E-10    -1.639330715722344E-10   -6.65687871114313E-10    2.5708190009149294E-10   -1.5426775777586646E-10  -3.270690770420729E-10
3.4E-5                    -7.740998162443429E-10   -4.5295416639736455E-10  5.175100412416285E-10    4.481809412072679E-10    7.975322558316973E-10    8.353529628611017E-10    5.4181785660949224E-11   -5.774028555808208E-10   8.161555977419503E-11    -4.194062401683825E-10   -6.174435884146981E-10
3.45E-5                   -7.592333787869922E-10   -3.283542494603542E-10   7.92420830136123E-10     7.139331504059892E-10    1.072739562446105E-9     1.1556552591956007E-9    3.2584632108275757E-10   -4.3778822662479634E-10  -1.3259135177733144E-10  -7.24280513784809E-10    -9.445070689445168E-10
3.5E-5                    -7.01913536720505E-10    -1.5579586971142127E-10  1.1009204230191985E-9    9.932605555826456E-10    1.351685545068089E-9     1.4828499555451786E-9    6.487820123643603E-10    -2.4038633164198265E-10  -3.86033819069134E-10    -1.0667729265325549E-9   -1.3005438449720492E-9
3.5499999999999996E-5     -5.977682778445225E-10   6.157360201725844E-11    1.4367425728050524E-9    1.279416870589422E-9     1.6198548472519478E-9    1.8014088146848559E-9    1.0172999929482495E-9    1.6837840143519307E-11   -6.806085906807588E-10   -1.4397205190268664E-9   -1.6763995052096323E-9
3.6E-5                    -4.4391795958310724E-10  3.185507566051745E-10    1.7848063365047367E-9    1.5670128532951627E-9    1.8677173441558687E-9    2.1003393494514266E-9    1.4234579531687196E-9    3.3272054832408714E-10   -1.0160023868610885E-9   -1.830205480189527E-9    -2.0611001888567463E-9
3.65E-5                   -2.359317206262828E-10   6.111770035751737E-10    2.1243402837865397E-9    1.8503844805401004E-9    2.089866547703936E-9     2.368925127625302E-9     1.8561035399325718E-9    7.042883483313499E-10    -1.3858842927316983E-9   -2.2215643084078447E-9   -2.4417330067443234E-9
3.7E-5                    3.165849868839167E-11    9.378487153140997E-10    2.4342777383566405E-9    2.1203213811163443E-9    2.2788498937916975E-9    2.593205953022924E-9     2.3002690791723078E-9    1.126764171474644E-9     -1.7772854911856509E-9   -2.5960606567383295E-9   -2.8034681473970234E-9
3.75E-5                   3.623510135305223E-10    1.2972095319595475E-9    2.6960125558839322E-9    2.3613104065827394E-9    2.4193661727310714E-9    2.7567641204104864E-9    2.7391627279451202E-9    1.592606424538843E-9     -2.1733702691902246E-9   -2.9362020300846677E-9   -3.129053271471826E-9
3.7999999999999995E-5     7.560033938048218E-10    1.6849275101019905E-9    2.8923849576841318E-9    2.5515484844769502E-9    2.4881773245675996E-9    2.8440817736623337E-9    3.156752658049028E-9     2.090748464799917E-9     -2.5568175710416905E-9   -3.224458593486614E-9    -3.398040877427088E-9
3.85E-5                   1.2096581813438658E-9    2.091829884170563E-9     3.005801173786834E-9     2.666075287929919E-9     2.4598453336485365E-9    2.8423627456555558E-9    3.5374393325829577E-9    2.6064501151497044E-9    -2.9110797325084005E-9   -3.442505432519097E-9    -3.5870058035093087E-9
3.9E-5                    1.7181379475922983E-9    2.503676922009248E-9     3.0182144585937575E-9    2.6811867032241946E-9    2.313826435587881E-9     2.739984700834386E-9     3.86286673046433E-9      3.1214475903881512E-9    -3.219239539140039E-9    -3.570917344239731E-9    -3.67134329743148E-9
3.95E-5                   2.271890711057118E-9     2.9016210499623026E-9    2.9128957131865014E-9    2.577715361887978E-9     2.0381588252030802E-9    2.5233937906233964E-9    4.109264625499416E-9     3.614264341985898E-9     -3.462399114754802E-9    -3.589353935999343E-9    -3.627579835180881E-9
3.9999999999999996E-5     2.8535657701259805E-9    3.2632253415411575E-9    2.6763670682287225E-9    2.3420711873673448E-9    1.6282461642962538E-9    2.175719297476696E-9     4.247762651478351E-9     4.060837890581397E-9     -3.6195653474318676E-9   -3.477095768304559E-9    -3.4347539235071627E-9
4.0499999999999995E-5     3.4373990786008118E-9    3.5644057124510054E-9    2.2994492624377397E-9    1.9657396784720064E-9    1.0832658676383486E-9    1.679151606716844E-9     4.247211732811051E-9     4.435174373432033E-9     -3.6691453759353403E-9   -3.2142368508768827E-9   -3.0748417210681796E-9
4.1E-5                    3.9930461284109E-9       3.781590927650599E-9     1.7773976252132763E-9    1.4448074986567417E-9    4.045223335053772E-10    1.0207278083009286E-9    4.077741237507704E-9     4.709233392021388E-9     -3.590548534986552E-9    -2.783617830119143E-9    -2.533342507420194E-9
4.15E-5                   4.490591699790764E-9     3.89266066899002E-9      1.1095558244302119E-9    7.806060735211924E-10    -4.022061723272781E-10   1.9900989559323676E-10   3.713546789878433E-9     4.851984570785157E-9     -3.3647266754835417E-9   -2.1726590604246962E-9   -1.8004966670006751E-9
4.2E-5                    4.902136901379245E-9     3.8762724195901774E-9    2.990886129748788E-10    -1.8884617010085005E-11  -1.3228103751039584E-9   -7.719263059220973E-10   3.1340552644339654E-9    4.829244282090437E-9     -2.974103316108725E-9    -1.3742767234609255E-9   -8.724558241591073E-10
4.2499999999999996E-5     5.199482386489119E-9     3.7107269995719563E-9    -6.46712279200499E-10    -9.38593396959802E-10    -2.3338033435831635E-9   -1.863967757742129E-9    2.3238363714959634E-9    4.606243495778776E-9     -2.40312223220876E-9     -3.8749785121730395E-10  2.48054763224984E-10
4.2999999999999995E-5     5.351801725360412E-9     3.373882609878984E-9     -1.7153838561067265E-9   -1.958240155774359E-9    -3.4052384953868212E-9   -3.0417259905003125E-9   1.2729893989916147E-9    4.1525477698548524E-9    -1.6398889046195317E-9   7.808966277647928E-10    1.5509247496951247E-9
4.35E-5                   5.326350565498635E-9     2.8449059566881682E-9    -2.8875795954687364E-9   -3.055289214590132E-9    -4.504409831091696E-9    -4.2705872482573875E-9   -2.0627682519223397E-11  3.4460918228693682E-9    -6.784447238779601E-10   2.1138833053315996E-9    3.016988876409763E-9
4.4E-5                    5.090986939874673E-9     2.107569877789612E-9     -4.134880440549427E-9    -4.2052989576735275E-9   -5.5965705301045055E-9   -5.520260683474842E-9    -1.548133904818205E-9    2.473466061621266E-9     4.788608959683477E-10    3.5828228147339312E-9    4.6161316469446425E-9
4.45E-5                   4.615823092433015E-9     1.1536913961486276E-9    -5.418034362703606E-9    -5.377377659434961E-9    -6.641962517740419E-9    -6.760672417833386E-9    -3.287470844402029E-9    1.2275795832996E-9       1.819272655116884E-9     5.148506507472857E-9     6.306720519047477E-9
4.4999999999999996E-5     3.874133307278292E-9     -1.506709617424741E-11   -6.687498140041842E-9    -6.527488680330223E-9    -7.591742143789286E-9    -7.95311129308118E-9     -5.2034529352278E-9      -2.930070837951932E-10   3.318398482664026E-9     6.763615604402364E-9     8.037058921601972E-9
4.5499999999999995E-5     2.8447372676561774E-9    -1.3875224097977853E-9   -7.887319207601622E-9    -7.595859129963485E-9    -8.386966167790643E-9    -9.044124195754126E-9    -7.249366407797844E-9    -2.0804751780186583E-9   4.940402561571278E-9     8.3746674890358E-9       9.747850894608392E-9
4.6E-5                    1.5161291843236705E-9    -2.943918438875558E-9    -8.960322428150735E-9    -8.512240486673594E-9    -8.96388465439777E-9     -9.968100635775232E-9    -9.368896373988177E-9    -4.112018386775997E-9    6.639394263618453E-9     9.922777973812586E-9     1.13741600564657E-8
4.65E-5                   -1.1022008675851546E-10  -4.655690798931187E-9    -9.85086881801252E-9     -9.206356361098408E-9    -9.264519997032848E-9    -1.0657563457785231E-8   -1.1497379355892628E-8   -6.3464000131798016E-9   8.36110602938556E-9      1.134395335825398E-8     1.2846583477495936E-8
4.7E-5                    -2.0193490232090776E-9   -6.484072407642392E-9    -1.0504392603904414E-8   -9.61716769840115E-9     -9.246160489055317E-9    -1.1054233395303375E-8   -1.356164626912893E-8    -8.72466995289941E-9     1.0044249707344961E-8    1.2569837188935083E-8    1.4092724623833013E-8
4.7499999999999996E-5     -4.1838444013400835E-9   -8.379110140389501E-9    -1.0867479304282108E-8   -9.696883138726247E-9    -8.88301767793777E-9     -1.111445458534034E-8    -1.547874057262103E-8    -1.1173031553918175E-8   1.1621724925199005E-8    1.3529585376657853E-8    1.5039795790446327E-8
4.8E-5                    -6.563686380674268E-9    -1.0280116793904621E-8   -1.0892057875336329E-8   -9.410571438351374E-9    -8.160202708499163E-9    -1.0808293501132428E-8   -1.7155600893235676E-8   -1.3604941453768743E-8   1.3022204161043348E-8    1.4153319455742067E-8    1.5617762989075153E-8
4.85E-5                   -9.103965809517218E-9    -1.2117174906225856E-8   -1.054195470787541E-8    -8.734739101139664E-9    -7.067625563078173E-9    -1.0116333885263084E-8   -1.8492182104584147E-8   -1.5921823267589456E-8   1.4172436839787898E-8    1.4376861305349937E-8    1.5761907250839076E-8