% Model:              analysis.mph
% Version:            COMSOL 6.0.0.405
% Date:               Jul 20 2023, 15:07
% Dimension:          1
% Nodes:              10001
% Expressions:        11
% Description:        Point graph
% Time (s)                Displacement field, Y component Displacement field, Y component Displacement field, Y component Displacement field, Y component Displacement field, Y component Displacement field, Y component Displacement field, Y component Displacement field, Y component Displacement field, Y component Displacement field, Y component Displacement field, Y component
0                         0                        0                        0                        0                        0                        0                        0                        0                        0                        0                        0
1.0E-6                    -5.360326116151626E-44   -8.44677445850733E-45    -5.292764172435565E-43   -4.768956433692532E-43   -2.058392120165942E-43   -5.356205454794656E-44   -5.608945493066681E-45   1.637010144835477E-46    3.975537200642569E-48    3.027353786483277E-49    3.313899762299856E-51
2.0E-6                    6.719355112987182E-43    1.3662819855883182E-42   8.15451074300863E-42     6.605863772464538E-42    3.6407376253148086E-42   6.1965506105256645E-43   6.642284428052368E-44    -1.8857925311205384E-45  -4.1920724091585826E-47  -2.904174404406465E-48   -3.1133737927762242E-50
3.0E-6                    -4.3468191042305693E-42  -1.949253675952862E-41   -4.982935038715833E-41   -4.3964516724633414E-41  -3.2326313153618326E-41  -5.036294527993684E-42   -4.825860047041089E-43   8.695881388893733E-45    -3.5476886066581744E-47  4.8055525279376874E-48   8.957780328239637E-50
4.0E-6                    1.1446172439008396E-41   8.865642945949883E-41    9.441160105585732E-41    1.2542802243483388E-40   1.2414814680739807E-40   2.1412506625901033E-41   1.7557064532622446E-42   -2.6477477524321075E-44  1.7457881197664117E-45   2.40400634659722E-47     -3.648236714143333E-49
4.9999999999999996E-6     1.3993077573916846E-42   -1.2449780631855967E-40  1.907384235947916E-40    4.124021807238436E-41    -9.74713551610921E-41    -2.082184346157525E-41   -1.670146768347795E-42   -4.8499873807212454E-45  -1.4434404555752076E-44  -3.0497347647903555E-46  7.799859701349317E-49
6.0E-6                    -6.260480230203947E-41   -2.920001185728272E-40   -9.689226511293034E-40   -1.2477916880347533E-39  -8.956583742069506E-40   -1.7141460015376301E-40  -1.0171144962953554E-41  5.670869205321584E-43    6.119213178880977E-44    1.8450728988751554E-45   8.845779536025859E-48
7.0E-6                    8.293199866498996E-41    1.1323373496975614E-39   4.214433143607731E-40    2.1161978927036178E-39   2.6640345247806996E-39   5.110466032277029E-40    3.416939566639495E-41    -2.724214508535083E-42   -9.675403814346683E-44   -5.729248011235936E-45   -7.305530254246094E-47
8.0E-6                    -2.5787134895777315E-42  -4.5722831681704525E-40  3.3255547904809864E-39   4.608491831555141E-39    1.5878852980928837E-39   4.694231765483013E-40    -2.7131343438123752E-42  4.5318305251223506E-42   -2.493541928590084E-43   3.675267212494088E-45    2.1017609634441933E-46
9.0E-6                    -1.7147430344071897E-41  -2.4199012154872177E-39  -3.9590494880742525E-39  -1.5578426585798303E-38  -1.6648394484949337E-38  -3.3040997096793005E-39  -1.5948970306007284E-40  7.419289356132963E-42    1.3840576523513176E-42   3.454117625060523E-44    -4.312157597515125E-47
9.999999999999999E-6      7.81050997367748E-40     3.136200534787548E-39    -6.176652564263387E-39   -8.284426829206032E-39   5.999900053762784E-39    -2.059443622528551E-40   2.0024788559408166E-40   -4.5013017572425995E-41  -1.3825826197010222E-42  -1.0975710399584426E-43  -1.442396746821147E-45
1.1E-5                    -1.9398512742873264E-39  -3.2975272561347976E-39  9.638354584812307E-39    6.746820015097493E-38    6.967446830764032E-38    1.4039918018379326E-38   4.135093442294258E-40    4.71852073257377E-41     -5.196920877246934E-42   3.651912662656187E-44    3.8258195796753393E-45
1.2E-5                    -3.442173334827722E-39   1.3912475213184532E-39   5.749301404650164E-39    -9.311455537782262E-39   -5.173567702101592E-38   -3.118835527931778E-39   -1.0844912366414206E-39  1.352628271918159E-40    1.5332669750957345E-41   4.872087641545057E-43    -1.5292664617663354E-46
1.3E-5                    1.0253264054510977E-38   4.1468398148781144E-38   1.2843929197795557E-38   -2.3216121732444933E-37  -2.4217658261585514E-37  -4.655667779678257E-38   -6.332667146938245E-40   -4.048367865721088E-40   1.9598802283999885E-42   -1.0012729584187536E-42  -2.0379234045485415E-44
1.4E-5                    9.097526953235451E-39    -6.094785968336621E-38   6.772420944850392E-39    1.5526415285228244E-37   2.1246124162868377E-37   1.587436610344674E-38    3.8167961416879104E-39   -1.1160364890633894E-41  -7.092911060438727E-41   -5.816185116552892E-43   3.899205162181208E-44
1.4999999999999999E-5     -3.025939345188115E-38   -1.891211619078548E-37   -2.472087286604459E-37   7.533740155073782E-37    7.598524586449436E-37    1.2767855489141435E-37   2.911374933335025E-40    1.602200972553248E-39    7.789381809597468E-41    5.0698268369270207E-42   3.747749545704344E-44
1.6E-5                    -1.1314600354635466E-38  3.190462436230002E-37    -1.3272300859550823E-37  -7.977923509359475E-37   -6.583166040540505E-37   -6.159388339419679E-38   -1.0025927499460396E-38  -1.75425577571903E-39    2.1983978447842346E-40   -4.159021089131537E-42   -2.4778127976061806E-43
1.7E-5                    6.641395667090268E-38    6.883477734748348E-37    1.4558461390648947E-36   -2.5357518647259828E-36  -2.238846988294006E-36   -3.0747714296779415E-37  2.3551009337305738E-39   -4.2932996129753785E-39  -5.342658647190324E-40   -1.5067546764293636E-41  1.2757676008357064E-43
1.8E-5                    -2.7817139368388876E-38  -1.0679532101882335E-36  1.2825142506663061E-36   2.764658218816238E-36    1.7671755509774312E-36   2.3771038157012484E-37   1.84426688584887E-38     1.0289917744590949E-38   -5.092147829635022E-40   3.119173990347239E-41    9.986437611148835E-43
1.8999999999999998E-5     -1.521288010122048E-37   -2.262874443795778E-36   -5.760928662377226E-36   8.564019917149441E-36    6.433625066334282E-36    7.416177842324199E-37    -2.1001010263207797E-38  8.19215887134546E-39     2.4493724161179945E-39   2.440212022564017E-41    -1.3346121447367189E-42
1.9999999999999998E-5     1.6437193701055614E-37   2.5612918087536534E-36   -8.333367448519717E-36   -7.028426876360588E-36   -4.3032715420582603E-36  -7.844190699699555E-37   -2.3282477228188463E-38  -4.1278271495607817E-38  9.069278797631765E-40    -1.3275351599144419E-40  -3.256575115092347E-42
2.1E-5                    3.807548817466131E-37    6.656719520695985E-36    1.5694120802015925E-35   -2.700605185729682E-35   -1.8710327877706502E-35  -1.9619317750204098E-36  1.3038291173009074E-37   -9.5180496006025E-39     -9.349731496738767E-39   3.552009358189199E-41    6.604272041836543E-42
2.2E-5                    -2.6254725010234763E-37  -3.956011417765819E-36   3.826000506090996E-35    1.3039078683249628E-35   8.58067372172345E-36     1.7686482707598178E-36   8.132982868822572E-38    1.3844463675599345E-37   -1.226684535355218E-39   4.597033305364279E-40    9.669893784485747E-42
2.3E-5                    -4.126033838203427E-37   -1.6523539275456885E-35  -2.2630670116930144E-35  7.868797625622066E-35    5.505548900191035E-35    4.7390180281367255E-36   -5.325222991617244E-37   -2.8130945749247216E-39  3.178970100524777E-38    -5.158732615091601E-40   -2.548013381485135E-41
2.4E-5                    1.1936593131726521E-37   1.0902275874041642E-36   -1.283156493134155E-34   -1.2112325188664232E-35  -6.633733812035542E-36   -2.1557936162427833E-36  -6.106921501142879E-37   -4.152383014871062E-37   1.078509277198513E-39    -1.5070880513224774E-39  -2.7289270550503253E-41
2.4999999999999998E-5     -2.26906604647996E-36    3.1818938993369893E-35   -3.0801276481826427E-35  -2.184894171278299E-34   -1.557396876400294E-34   -6.607008114164734E-36   1.3117056001488878E-36   5.217726810975779E-38    -9.952046796033802E-38   2.7819413022319703E-39   8.838507891417515E-41
2.6E-5                    -2.9445593955225304E-36  1.2928422726508458E-35   3.1297120436817263E-34   -5.057049956331385E-35   -5.150579994839263E-35   3.098402306982947E-36    2.7865749172731804E-36   1.153663189051355E-36    8.556860532515979E-40    5.068574319559699E-39    7.048798767366498E-41
2.7E-5                    1.1785377115505937E-35   -4.120245913972006E-35   3.085602586799253E-34    5.69025594551943E-34     3.920620327421989E-34    -6.438788205754469E-36   -1.346661914030608E-36   -1.8722835829271735E-37  2.9595083098641513E-37   -1.1016277386734163E-38  -3.0169744970942267E-40
2.8E-5                    2.3520199964353162E-35   -2.9974596064251084E-35  -5.110868662923146E-34   4.29500643677107E-34     3.547059275062434E-34    -3.3031628350137153E-35  -7.878289169996084E-36   -3.071554333309177E-36   -8.183416239686439E-39   -1.7093485995541477E-38  -1.5460130161624315E-40
2.9E-5                    -1.9745007209905078E-35  2.8592884086223396E-35   -1.0757026249072143E-33  -1.2414953597610658E-33  -7.89089521180085E-34    5.051301328453488E-35    -2.7086806573583917E-36  4.885058285577869E-37    -8.648203378736553E-37   3.548390521016809E-38    1.0705062776607163E-39
2.9999999999999997E-5     -8.305616241229379E-35   -1.6003263556332506E-35  3.1327547000794934E-34   -1.904649702444076E-33   -1.4049453706077691E-33  2.100327659254874E-34    1.5095940770126061E-35   8.126923737401307E-36    3.7082560201146735E-40   5.297290968892181E-38    2.949310869852195E-40
3.1E-5                    -1.3365831996083646E-35  -6.686241556117872E-35   2.470780911495811E-33    1.737037452404713E-33    9.414557706469054E-34    -3.7413517957502947E-35  1.509132181958983E-35    -7.382142861294366E-37   2.5297545712487302E-36   -9.912378418381114E-38   -3.909688421373011E-39
3.2E-5                    1.6762849432988945E-34   2.180875316886153E-34    1.1779682029617817E-33   5.85823205276635E-33     4.0364194129044825E-33   -7.773128801256686E-34   -2.2141538065462062E-35  -2.167687124009613E-35   3.204502754450153E-37    -1.4064246657152904E-37  -8.228991022391368E-40
3.2999999999999996E-5     1.1107151104937756E-34   5.302229578919129E-34    -3.956438103848416E-33   5.569829911932983E-34    9.694600318721193E-34    -5.4065702654140186E-34  -4.3028035138329633E-35  -1.9424763780215225E-36  -7.274770019210455E-36   2.6593134299479455E-37   1.3796218378430337E-38
3.4E-5                    -2.456332520475855E-34   -2.7474589930189168E-34  -5.1478687296991096E-33  -1.2641064185071346E-32  -8.304663821490513E-33   1.8265693678939775E-33   2.47327205978041E-35     5.653507066747307E-35    -2.8031488790307392E-36  3.197964613985032E-37    4.536020320176569E-39
3.5E-5                    -1.948040673155986E-34   -1.9766015990289567E-33  3.4891907148067564E-33   -1.1711885273699635E-32  -9.198690998576282E-33   3.0723746755788658E-33   1.1193185184171089E-34   2.2323496309115923E-35   1.9519544635709784E-35   -7.623922162351793E-37   -4.4019459310413696E-38
3.6E-5                    5.424754398286332E-34    -1.3646044989788793E-33  1.196920544527071E-32    1.650971876590026E-32    9.597607519053566E-33    -2.0832880993662598E-33  2.1617050007911203E-35   -1.3548093394753425E-34  1.5181453591957695E-35   -7.185472700252568E-37   -2.4555133095899155E-38
3.7E-5                    4.496509138819279E-34    3.5492111487568766E-33   3.167226308027243E-33    3.81205302337002E-32     2.788276050644208E-32    -9.515300977293997E-33   -2.386024945054168E-34   -1.1102241075311644E-34  -4.5480145127176435E-35  2.2878474695717963E-36   1.2189604825971559E-37
3.7999999999999995E-5     -1.5941052396274062E-33  6.975851474309258E-33    -1.8116709253723437E-32  1.0488706391034514E-33   6.84991177443043E-33     -3.6599368994831445E-33  -2.6173679534398148E-34  2.768758729766478E-34    -6.122659414326057E-35   2.0315951368850484E-36   1.0188911408972819E-37
3.9E-5                    -2.449059582915437E-33   -3.0433651695680266E-34  -2.0385441476833486E-32  -7.241525945518351E-32   -4.826942669743324E-32   1.8413428932706783E-32   2.5223206189650807E-34   3.956518098327505E-34    8.263576077680923E-35    -6.297859640438974E-36   -2.9036202422945875E-37
3.9999999999999996E-5     2.34601538642079E-33     -1.438590240324449E-32   1.198637262936529E-32    -6.820943717341423E-32   -6.092396217266561E-32   2.540984187699489E-32    7.676141380672882E-34    -4.285026796190431E-34   1.9455338565458807E-34   -6.760095471933183E-36   -3.2823268237977424E-37
4.1E-5                    8.620732928904733E-33    -1.4275701263340377E-32  4.2602992044323564E-32   6.918128375219458E-32    2.864013510010007E-32    -1.460286807858614E-32   2.9878005681569585E-34   -1.1123211033011343E-33  -8.393003495648004E-35   1.4303219068746043E-35   6.172489777857247E-37
4.2E-5                    3.324346594033729E-33    1.0770132925536069E-32   2.0612726747540844E-32   1.8765804555342864E-31   1.4049494275992862E-31   -6.594950231988633E-32   -1.027437396448343E-33   3.0158703459199626E-34   -4.955271754016444E-34   2.024741154953663E-35    8.752993092340375E-37
4.2999999999999995E-5     -1.5557967336128428E-32  3.410167490800625E-32    -4.1987598618381856E-32  5.999006476683519E-32    9.575707432661043E-32    -3.65199763781171E-32    -1.4694244524993853E-33  2.5290543961281263E-33   -1.1298197640854316E-34  -2.615020071101512E-35   -1.2856875008200672E-36
4.4E-5                    -2.349089077936565E-32   1.6833202049930436E-32   -6.728085674795739E-32   -2.6192930031614835E-31  -1.4276126379768372E-31  8.778950626723477E-32    1.5060377334851357E-34   9.073576764856328E-34    1.002077006375509E-33    -4.890756945474269E-35   -2.1722120485836247E-36
4.4999999999999996E-5     5.469820865788743E-33    -3.1785777061024805E-32  -1.0346530801807008E-32  -3.614402359871642E-31   -3.1469965476717087E-31  1.546652150918137E-31    2.0957630517715738E-33   -4.541638611659529E-33   8.615186715460157E-34    4.3635311124190406E-35   2.8044534358915932E-36
4.6E-5                    4.978367819788089E-32    -4.997058183823173E-32   6.843381747182135E-32    6.130539880752911E-32    -1.0120658260149377E-31  3.5345270793539786E-33   1.4063382827756428E-33   -4.7282999799526155E-33  -1.515297294719277E-33   1.0164252601262606E-34   5.7520297665347136E-36
4.7E-5                    4.323637904133483E-32    -6.0731949659699786E-33  7.380273903405099E-32    6.383614525869279E-31    4.006708176699636E-31    -2.5696599782613053E-31  -1.4475594293774357E-33  5.6372066723956395E-33   -2.6855607966240527E-33  -8.770551936116655E-35   -5.675122625225819E-36
4.8E-5                    -3.955718349390275E-32   4.3340494454027667E-32   5.339337050611231E-33    5.669515944687437E-31    5.920400675501781E-31    -2.691892262114593E-31   -2.0207580489131804E-33  1.285806670453275E-32    1.2592243923953997E-33   -2.290958748647445E-34   -1.6238544610402383E-35
4.9E-5                    -1.13330947237154E-31    2.8387920545663883E-32   -4.304916069516005E-32   -3.7359920299973216E-31  1.7599201952085135E-32   1.2709812039036482E-31   1.5908968007927945E-33   -1.309039013790888E-33   5.974873245235596E-33    1.9032320987603534E-34   7.111524398091228E-36
4.9999999999999996E-5     -5.691031831423944E-32   -1.7079679326298537E-32  -2.8542179225817736E-32  -1.2298265404468255E-30  -8.742049910417281E-31   5.4180492621291454E-31   3.7538878030316606E-33   -2.436716455012311E-32   1.5241505338885875E-33   6.283741630829113E-34    4.2207185035881724E-35
5.1E-5                    1.1404918411868236E-31   6.474628854043639E-33    -3.217744789692016E-32   -7.605361558214186E-31   -9.551082358971822E-31   3.752450324263883E-31    -2.086942720091501E-33   -1.6178525804700965E-32  -1.0066739447689114E-32  -2.140672233803109E-34   7.644954133436951E-36
5.2E-5                    2.0601929577041734E-31   8.466823573206492E-32    -1.1419148527672226E-31  9.189338146295854E-31    2.4741414375500518E-31   -3.8772431887394826E-31  -1.0967913239835162E-32  2.982334289213553E-32    -9.608351714722486E-33   -1.6430454869695096E-33  -8.734519619289341E-35
5.3E-5                    5.701378994448202E-32    4.729833716674994E-32    -1.4348997705785164E-31  1.9992333187320092E-30   1.5906444286944507E-30   -9.368872490737518E-31   -7.39429421899966E-33    5.157715814929711E-32    1.133285210209684E-32    -5.7568184755533835E-34  -7.271163132859438E-35
5.4E-5                    -2.2467879106992635E-31  -1.8537510822138585E-31  8.310809973473828E-32    8.613604450686784E-31    1.2996189952515738E-30   -4.679675035081756E-31   1.3974836019877182E-32   -7.109288810016417E-33   2.49805162154954E-32     3.1584572488063216E-33   1.2337988007260894E-34
5.4999999999999995E-5     -3.242514042371458E-31   -3.6554357397859316E-31  4.818314722257441E-31    -1.692691234917485E-30   -7.801486474163572E-31   7.541626636875311E-31    3.142881748704765E-32    -8.987741017085779E-32   -1.1138369089765336E-33  3.579185107743859E-33    2.2224121195285885E-34
5.6E-5                    -7.083548272767367E-32   -1.166264811901083E-31   5.751993043746165E-31    -2.7846868814711825E-30  -2.4411993975406293E-30  1.4493321574901117E-30   1.3076230409993388E-32   -6.610723999122834E-32   -4.2925437668707514E-32  -3.2773599497654145E-33  -6.360338327216388E-35
5.6999999999999996E-5     3.2982738670681717E-31   5.259251979237554E-31    -3.144727744913222E-32   -6.646779823748019E-31   -1.4275176380555587E-30  6.529324313314106E-31    -3.934072355711242E-32   8.1136806276396E-32      -3.169173977773412E-32   -9.185664032060845E-33   -4.228233876473076E-34
5.8E-5                    4.760323986385315E-31    9.094891577749014E-31    -1.0120146908415792E-30  2.709183659660775E-30    1.5515178646425924E-30   -1.0919281113536905E-30  -7.098844808758067E-32   1.7161248601761592E-31   4.3548610045399593E-32   -1.877105031445285E-33   -1.9868816357844713E-34
5.9E-5                    1.751278914022485E-31    3.571503046179443E-31    -1.3730523893548977E-30  3.307742375086041E-30    3.1084145721572013E-30   -2.1045962266143297E-30  -2.1640103586142016E-32  3.4908697765424613E-32   8.572535795700027E-32    1.3513612291774005E-32   5.093188807782378E-34
5.9999999999999995E-5     -3.540815012051111E-31   -9.351170513368762E-31   -4.14679681853016E-31    -2.1118403569448493E-31  1.1225540109108846E-30   -1.2253547209285002E-30  9.075276244199756E-32    -2.13234236824654E-31    6.050234532367172E-33    1.415878372962956E-32    6.4931220473735805E-34
6.1E-5                    -6.581182786503616E-31   -1.772988408063761E-30   1.3291731663194319E-30   -4.145219639082298E-30   -2.3081783171536365E-30  9.792904974457576E-31    1.4947591421816613E-31   -2.4191733089983007E-31  -1.2304083831371188E-31  -8.344793080251727E-33   -2.6230826372785645E-34
6.2E-5                    -4.254184576661537E-31   -1.0225239775766895E-30  2.3334768881784266E-30   -3.4485624890820025E-30  -3.0703862774923128E-30  2.7233641796150175E-30   4.3583201037554713E-32   6.680712190202055E-32    -1.1893078682729662E-31  -2.702926009752401E-32   -1.0443314217412322E-33
6.3E-5                    2.2693056195731065E-31   1.0775101310509315E-30   1.4818637917232546E-30   2.0233628366709974E-30   -1.7876729289600784E-31  2.600257843954524E-30    -1.819176625421921E-31   3.7609108207921626E-31   6.731542393264864E-32    -1.0733391455647723E-32  -3.4810806845415235E-34
6.4E-5                    7.759099591917747E-31    2.788975719939741E-30    -7.584720026768182E-31   6.321901079289851E-30    2.6811899863547784E-30   5.841652574788275E-31    -3.086496497211878E-31   2.5653757021156626E-31   2.3089724439262037E-31   2.689950278733935E-32    1.0729241772600054E-33
6.5E-5                    6.931047199835708E-31    2.319085892318398E-30    -2.6560515517525743E-30  3.747325811342926E-30    1.703265859551038E-30    -2.2934831723692354E-30  -1.382918540321258E-31   -2.2703726767677844E-31  1.2991993226531006E-31   3.5061705371603496E-32   1.0637404385197474E-33
6.599999999999999E-5      -1.845139583090746E-32   -4.0173037877005424E-31  -2.741431751581933E-30   -4.071797430477547E-30   -1.86314037165634E-30    -4.666589854011644E-30   2.6744834013866714E-31   -5.047838837120559E-31   -1.8640228946464866E-31  -6.306900363224128E-33   -6.811083151737807E-34
6.7E-5                    -6.925839225475999E-31   -3.347493508163346E-30   -1.0083981529659957E-30  -9.075984417061853E-30   -2.8390503089370215E-30  -4.977792906649287E-30   5.724386191380115E-31    -1.9222978106540532E-31  -3.644922160619222E-31   -4.810691808356144E-32   -1.667975063343241E-33
6.8E-5                    -6.011915908910664E-31   -3.9619908068903155E-30  1.2843866199346002E-30   -5.3893320694361226E-30  1.2134721710181719E-30   -1.6883273308242236E-30  4.449954254501219E-31    3.7587757748656033E-31   -1.3176561434476135E-31  -2.839777492448088E-32   -4.3203946818018996E-35
6.9E-5                    1.8042764480331277E-31   -1.3992380884482792E-30  2.7574511462126926E-30   4.067884632324097E-30    5.976481094475888E-30    5.169237692472243E-30    -1.2261218279468936E-31  5.22718008992668E-31     3.3803612003995033E-31   3.880795069954064E-32    2.2032529711505955E-33
7.0E-5                    6.537301400450557E-31    2.5375545688712547E-30   2.7634481291734785E-30   1.0598050863882534E-29   4.642448393886176E-30    1.1951618301341701E-29   -7.668448222194646E-31   8.129339403470925E-32    5.401866964147518E-31    6.580858541607857E-32    1.4399429387772779E-33
7.099999999999999E-5      -6.070326281662142E-32   4.7110926016520534E-30   1.416706352048118E-30    8.615409808051772E-30    -3.870644182994124E-30   1.2150963718008073E-29   -1.0145708709838332E-30  -3.99304205769073E-31    1.7338611339904799E-31   1.8865895041143598E-33   -2.217388229701128E-33
7.2E-5                    -1.4674104325701182E-30  3.2551781897174305E-30   -6.934618299419008E-31   2.712480950189086E-31    -1.2308474400930538E-29  1.604053337295636E-30    -6.109981533419034E-31   -3.767091959794997E-31   -4.804970985916854E-31   -8.431468099847832E-32   -3.887806849860916E-33
7.3E-5                    -1.7900371210478945E-30  -7.1991451260216435E-31  -2.6229282592010332E-30  -8.052737170059221E-30   -1.159785384144079E-29   -1.557099996105225E-29   3.176374166935809E-31    7.260197583195825E-33    -7.837714519381923E-31   -7.657899506207244E-32   2.3447808833053987E-35
7.4E-5                    2.066867680489749E-31    -3.943259674392206E-30   -3.331721404108144E-30   -1.1500570025145835E-29  1.4714201843054654E-31   -2.7103282660624344E-29  1.3076202280768984E-30   1.9723411437154762E-31   -3.6737177800639873E-31  3.501215352310457E-32    5.813761033322075E-33
7.5E-5                    3.362103803164195E-30    -3.8301069315054735E-30  -2.4274154532325252E-30  -8.49472884082611E-30    1.5284349558824456E-29   -2.1131654004375392E-29  1.756728687242046E-30    2.847255675253858E-32    4.92890871138236E-31     1.2463475684176517E-31   5.445818696694099E-33
7.599999999999999E-5      4.5502255388735134E-30   -8.765479719435222E-31   -7.24907814189101E-31    1.8954756768682779E-31   2.275976034817649E-29    3.0245521831774162E-30   1.24197998182253E-30     -7.719219268060848E-32   1.0984435597210529E-30   8.514356635131541E-32    -3.1104613340842226E-33
7.7E-5                    1.625371583372693E-30    1.7786288979887044E-30   4.189753790541091E-31    1.0771435640684747E-29   1.6339852783939327E-29   3.171026134612444E-29    -1.5596149118538538E-31  2.091546645647379E-31    8.867566651951704E-31    -3.624080540668703E-32   -1.082554814530363E-32
7.8E-5                    -3.8871462122095334E-30  1.431251820208484E-30    5.937934258554379E-31    1.5763340195656182E-29   -1.739448662685766E-30   4.526886292748946E-29    -1.7719238631304505E-30  5.497618680290878E-31    -1.4138229660792428E-31  -1.1338330654335569E-31  -6.603471005071554E-33
7.9E-5                    -7.527656915355025E-30   -1.4650379596144272E-30  7.111987523009428E-31    8.415308705917415E-30    -2.270501739874009E-29   3.1838638423708957E-29   -2.6937290120998096E-30  3.2658885870456306E-31   -1.3534696849823706E-30  -1.1071203578471382E-31  8.153128696466027E-33
7.999999999999999E-5      -5.912525638502584E-30   -3.8357446970357456E-30  1.373262794806699E-30    -9.27183154440638E-30    -3.576332581463185E-29   -3.8168758242070325E-30  -2.3442001178325796E-30  -4.931481996593279E-31   -1.8000703246522833E-30  -8.201325209513271E-32   1.7602743521088447E-32
8.099999999999999E-5      -1.4150004615441714E-31  -3.317239058498888E-30   1.2396039811790943E-30   -2.472796232245459E-29   -3.291665901208229E-29   -4.254373724435288E-29   -8.666382004928726E-31   -1.1806584408981045E-30  -8.61458079023882E-31    -1.7054672854181972E-32  7.772658212056907E-33
8.2E-5                    4.993293324107732E-30    -7.842887971556087E-31   -1.905391985847214E-30   -2.4463042778205717E-29  -1.3179795642579352E-29  -6.212099980754003E-29   9.853428229143938E-31    -1.0127616099064536E-30  1.0981905564270004E-30   1.6079116435446547E-31   -1.539524866049136E-32
8.3E-5                    5.297175461497316E-30    6.69747987545643E-31     -7.988042349925028E-30   -6.619616036006028E-30   1.571368373996589E-29    -5.038815146825389E-29   2.3424209789777203E-30   -1.553468216275964E-32   2.7104342234655386E-30   3.742222109234208E-31    -2.785701349067217E-32
8.4E-5                    7.4380640098737E-31      -9.974131759708866E-31   -1.3343448118876297E-29  1.6887158315686743E-29   4.0511442178556345E-29   -1.2564209729584031E-29  2.721008057911124E-30    1.1386185829667861E-30   2.5440002606395677E-30   3.2469409518374023E-31   -1.1048887413055114E-32
8.499999999999999E-5      -4.8303601351699566E-30  -4.9693292301262835E-30  -1.3721272196191216E-29  3.0286177074324704E-29   4.957568744628479E-29    3.150397825268994E-29    2.2147656587038547E-30   1.754545655957158E-30    3.644737327633147E-31    -1.579816242316046E-31   2.5017839157692923E-32
8.599999999999999E-5      -7.132161653973554E-30   -8.872837245537449E-30   -8.889632129102086E-30   2.4724614034748182E-29   3.879926731809548E-29    5.8987729125548E-29      1.2992677714880763E-30   1.4954168944395915E-30   -2.4816122989759746E-30  -7.401155692907225E-31   4.491195306248214E-32
8.7E-5                    -4.805919732286029E-30   -1.1128418329094224E-29  -3.755289253762563E-30   9.081098844541452E-31    1.2011396532227809E-29   5.776024802590038E-29    4.031749025293847E-31    4.1280954055335155E-31   -4.0222797681181606E-30  -7.93413887704511E-31    2.0324379938959025E-32
8.8E-5                    -4.683263833257538E-31   -1.1651060553474557E-29  -4.49076148420514E-30    -3.384565026015049E-29   -2.288715000779454E-29   3.294144716355058E-29    -4.55348035367103E-31    -1.0565041482664878E-30  -3.1123254164060737E-30  -9.000151175346299E-32   -3.5676165847794233E-32
8.9E-5                    1.1374767020710107E-30   -1.0933109623596646E-29  -1.3382399590441056E-29  -6.81418759619635E-29    -5.748604049479622E-29   1.4195831338817434E-30   -1.6781001660126707E-30  -2.195552849593261E-30   -1.6085325243434048E-31  8.461180534867252E-31    -7.051037305207953E-32
8.999999999999999E-5      -3.055348023300777E-30   -9.466727891099614E-30   -2.7083952307886746E-29  -8.948676292731458E-29   -8.426412285175728E-29   -2.1484324779730906E-29  -3.69174985772932E-30    -2.4366595041607085E-30  3.2239125756605575E-30   1.2163379154707254E-30   -3.9493907003075987E-32
9.099999999999999E-5      -1.111503480537768E-29   -8.126216844805236E-30   -3.942775426790218E-29   -9.122559661573113E-29   -9.813096224275112E-29   -3.2654470019970766E-29  -6.452018609672169E-30   -1.7610615389796536E-30  5.154052884002922E-30    7.12558444729574E-31     4.159811738619728E-32
9.2E-5                    -1.6520925026128584E-29  -8.129883430442351E-30   -4.6243344115915105E-29  -7.938579977069195E-29   -9.971475415103206E-29   -4.1100823475068396E-29  -9.298728772853418E-30   -5.340655418166296E-31   4.424295720630953E-30    -2.80497817442425E-31    9.860453491717379E-32
9.3E-5                    -1.3250782611172373E-29  -9.893759894082985E-30   -4.855814407403175E-29   -7.047137604720552E-29   -9.74329444411553E-29    -5.860164096410694E-29   -1.1343452743132787E-29  9.573498268244801E-31    1.2385442392873712E-30   -1.1221655577927974E-30  6.78934752997882E-32
9.4E-5                    -1.670937450920421E-30   -1.2280616170934509E-29  -5.169800966076348E-29   -7.958094086746507E-29   -1.0393038207546223E-28  -8.997499392583684E-29   -1.2085484186729841E-29  2.5179002218315172E-30   -2.7634489860591033E-30  -1.3721024309801781E-30  -3.289030253874128E-32
9.499999999999999E-5      1.0662836050354606E-29   -1.3639943845756137E-29  -6.05224700290194E-29    -1.096661461678751E-28   -1.275112140740043E-28   -1.3070561231707117E-28  -1.1720273098839324E-29  3.648520647538611E-30    -5.5276981038173365E-30  -9.087937995913496E-31   -1.130296444684979E-31
9.6E-5                    1.4820098536175685E-29   -1.3497911006093348E-29  -7.465781353755474E-29   -1.513156301504883E-28   -1.6555132394284334E-28  -1.7214750852345325E-28  -1.08802462851859E-29    3.572595081395909E-30    -5.9577313945497995E-30  8.025717526849169E-32    -9.600582908844083E-32
9.7E-5                    7.841981372616862E-30    -1.2841326073914267E-29  -8.883264807457083E-29   -1.905547877588298E-28   -2.0662801625882203E-28  -2.086002092099158E-28   -1.0069210166798881E-29  1.9135107796075894E-30   -4.281947485341246E-30   1.1014697896435213E-30   4.6959905124939474E-33