% Model:              Untitled.mph
% Version:            COMSOL 6.0.0.405
% Date:               Jul 17 2025, 06:57
% Dimension:          1
% Nodes:              401
% Expressions:        11
% Description:        Point graph
% Time (s)                Displacement field, Y component Displacement field, Y component Displacement field, Y component Displacement field, Y component Displacement field, Y component Displacement field, Y component Displacement field, Y component Displacement field, Y component Displacement field, Y component Displacement field, Y component Displacement field, Y component
0                         6.595110003248116E-32    1.5362611739746023E-31   4.669952237361536E-31    1.9421146959965173E-30   9.864065180844334E-30    4.495790828946391E-31    -2.5987370591555888E-31  -1.3757321618831276E-30  -1.0883708247356501E-30  -5.706727225617717E-31   -1.5180429807631492E-31
5.0E-7                    8.260339431947773E-25    -2.7130155224242477E-23  2.767188212936524E-24    -1.6790654980537184E-22  1.2483722926031526E-22   1.6279851338223444E-23   -7.828889154577618E-23   -2.361821009139647E-22   -1.538756206675161E-21   -5.173768721568316E-22   -2.185650869502688E-22
1.0E-6                    -4.1261309212117983E-23  -2.5027283702401616E-23  -3.8195124483385587E-22  -3.197290597628474E-21   -4.710400587244732E-20   1.7935173219576576E-22   8.639763391435457E-22    5.01021198439429E-21     8.766037396248095E-21    2.9702910631981832E-21   1.5492054443876198E-21
1.5E-6                    3.2928938444253165E-22   8.72156755620931E-22     3.5995950968398026E-21   3.3432871439520424E-20   2.6861985047555907E-19   -4.792997330368299E-21   -3.086468911216517E-21   -2.3776452265902914E-20  -1.3942869091159914E-20  -6.64473685057536E-21    -2.4254928146892055E-21
2.0E-6                    -1.2542808347048988E-21  -2.6715651206715923E-21  -1.302120665979388E-20   -8.205864938393328E-20   -3.5513448065298466E-19  3.3515197664306566E-21   3.910348435733003E-21    3.479598838736863E-20    3.798902621566527E-21    1.1075250564927222E-20   -3.2786537192073645E-21
2.4999999999999998E-6     1.0238991724649935E-21   2.5776108138409937E-21   1.3438877925299161E-20   -8.92575617156966E-20    -6.372914458338048E-19   6.284095555596225E-20    4.844048002975644E-21    2.8286745706448174E-20   -1.400150319311246E-20   -3.873936714529258E-21   3.609106271428436E-21
3.0E-6                    5.441448479647111E-21    -2.3294395113606714E-21  2.7301423099446635E-20   4.246543912751729E-19    2.0569092290506145E-18   -7.007802206668315E-20   -1.6031658478537994E-20  -1.2948940665201516E-19  -1.109186910406786E-20   -6.758108484441662E-20   1.6838314545741074E-20
3.5E-6                    -5.028170949097873E-21   -9.027771740355466E-21   -6.208497648623824E-20   5.843816654837466E-19    -6.495984329026314E-19   -2.7847430016085744E-19  6.675947790574821E-22    1.095015238120174E-19    3.7410586545779175E-19   8.705006506409176E-20    3.144611483566712E-20
4.0E-6                    -2.479630103351243E-20   5.613800541342664E-20    6.43882854224042E-20     -9.69147244734132E-19    -7.704450255833566E-18   3.4189753605166126E-20   4.0313691754741136E-20   1.10795404675091E-19     -3.845404368684399E-19   2.6160902052525812E-19   -1.040415697954474E-19
4.5E-6                    -2.9754007278638686E-21  5.397939320773288E-20    -4.4366296112175307E-20  -3.888034192367688E-18   1.210866282057045E-17    8.407018063410922E-19    -8.587163510891399E-20   -5.856535530864126E-19   -2.0596951406262527E-18  -1.1202447897472722E-19  -2.61649616161808E-19
4.9999999999999996E-6     1.2299028836523312E-19   -1.2676018092198322E-19  -4.275231720736063E-19   -4.0483999479437605E-19  5.0848130508934064E-17   2.4329726421216822E-18   -2.7083684139715644E-19  -4.2810543574074297E-19  2.0428196821496633E-18   -1.347697741592348E-18   4.013124956269898E-19
5.5E-6                    1.8431771013686359E-19   -3.449773193827102E-19   1.4035896272635037E-18   1.614469042314065E-17    -3.9322488055668333E-17  5.667897691971731E-19    7.885731573319483E-19    2.0352708976051086E-18   8.885020060862044E-18    -1.56814331167188E-18    1.3469553045340408E-18
6.0E-6                    -4.605833769743312E-19   -3.989010105459096E-19   2.1373195701931784E-18   1.9049605028164944E-17   -2.941707700414313E-16   -1.3323137813080242E-17  2.0024301665653815E-18   6.293042359089397E-18    -3.54824767936504E-18    5.667441848861831E-18    -9.805696478192107E-19
6.5E-6                    -1.8239341707775087E-18  8.379318587806731E-19    -6.443256059636993E-18   -3.508849889220882E-17   -3.8188404163101473E-17  -2.1458318688520445E-17  -3.903140433229023E-18   -8.183330042109908E-18   -3.102096367429758E-17   1.5401047601007735E-17   -5.382671353065693E-18
7.0E-6                    -3.825651433565678E-20   5.6804838055145676E-18   -5.467873541599071E-18   -9.08335368666039E-17    1.2729725062667386E-15   2.958053880836878E-17    -1.2942767700668747E-17  -6.036046600582944E-17   -1.7163736308705547E-17  -1.066957494934801E-17   2.4668439403133316E-19
7.499999999999999E-6      9.529011714481334E-18    1.0706124004737024E-17   3.3570552310882556E-17   5.922796416238335E-17    1.3817386456655806E-15   1.5102355412073032E-16   4.4199554127279395E-18   -1.8680391091038398E-17  5.833537256293527E-17    -8.441727799979146E-17   1.5610409051305916E-17
8.0E-6                    1.3382926071360526E-17   -8.398684766836177E-18   3.951602746308025E-17    4.187449721733214E-16    -2.8565608449429096E-15  1.6762598051390123E-16   4.605429085038715E-17    2.7471197068982146E-16   1.108053018543942E-16    -6.252882863548958E-17   1.0148564733597496E-17
8.5E-6                    -1.8696722644907184E-17  -6.645195228508026E-17   -9.62118503986873E-17    2.2799640999614214E-16   -6.406314636979623E-15   -2.84959553539451E-16    2.0876581374192396E-17   2.47541727173226E-16     2.4960040134493113E-17   2.42542016163167E-16     -2.3060061181804448E-17
9.0E-6                    -6.171638935384316E-17   -4.7395635788641695E-17  -1.6620834413433744E-16  -1.1126553253826094E-15  2.5229731028676836E-15   -9.6475962870566E-16     -1.2053670622215265E-16  -1.0887116722581526E-15  -2.9481747764245387E-16  5.342384354931208E-16    -3.8025895780281277E-17
9.499999999999999E-6      4.274212761526349E-18    2.468810092503508E-16    2.824797582098959E-16    -1.3463608305141528E-15  1.9357179575951767E-14   1.458329382297335E-16    -1.932633468591698E-16   -2.2213846897575067E-15  -7.71521197520226E-16    -1.330478108733263E-16   -4.068003655519896E-17
9.999999999999999E-6      2.0962053083266E-16      5.860132063708232E-16    1.016551571344571E-15    3.1497495564745574E-15   1.583269312320449E-14    4.6277582114363355E-15   3.251309783377599E-17    1.0059088763903017E-15   -6.087892060965479E-16   -1.994452561040702E-15   -5.2519503929169704E-17
1.05E-5                   2.778761490819319E-16    1.151957232481305E-16    7.839229466458525E-16    8.353590397620765E-15    -1.715938131511834E-14   7.493935840908652E-15    3.2885666488577673E-16   6.48834032653229E-15     1.3322289205666462E-15   -2.628557736058922E-15   1.791524129098386E-16
1.1E-5                    -7.527754069789745E-17   -1.3218446763768801E-15  -1.0333541505697019E-15  2.0679661470117837E-15   -3.7630438946119396E-14  -1.549183592115175E-16   2.4890608780682314E-17   4.3166964063228995E-16   3.556299871360416E-15    1.7852331287316176E-15   7.975958755131319E-16
1.15E-5                   -4.819169935188558E-16   -1.5045783975058502E-15  -2.241394742449487E-15   -1.3966653147434919E-14  -6.591635489474799E-15   -1.1357206979321194E-14  -1.1086102357958775E-15  -2.312339070253894E-14   -1.6532432167719515E-16  9.764895033201426E-15    4.929617343060151E-16
1.2E-5                    5.70200695924806E-18     3.0467522477543343E-15   2.3994593629180042E-15   -1.1973906365723571E-14  5.187884373885277E-14    4.59561362089656E-15     -2.1922978733266502E-15  -3.644560605624719E-14   -1.4290617227599587E-14  8.604335738153735E-15    -2.734044449719721E-15
1.2499999999999999E-5     1.8897114338092944E-15   1.2248466083642276E-14   1.6519289232672104E-14   2.4880836093567267E-14   1.047571684563944E-13    6.341883148976778E-14    -2.334491452708654E-15   -3.8928137293405134E-15  -2.780943978511075E-14   -1.5812501441155024E-14  -6.21924436852841E-15
1.3E-5                    4.5428308769455885E-15   1.772185236866309E-14    3.024994010129411E-14    6.926008699034422E-14    1.6855291303499553E-13   1.2230980035257718E-13   -3.4233106947874934E-15  4.2302472262053197E-14   -1.4453755805446766E-14  -4.9293933753517446E-14  -4.483798914938634E-16
1.35E-5                   6.4610407564660306E-15   8.31412798769701E-15     1.8589494235553383E-14   9.571141339194028E-14    2.119559335854004E-13    1.1851650858276304E-13   -1.114880128697316E-14   -8.260469187123009E-15   3.004888981815026E-14    -3.735761774301163E-14   1.6930926843424853E-14
1.4E-5                    6.513104196001472E-15    -4.867606976593324E-15   -1.3610146794051468E-14  1.2132933565064755E-13   1.2009806995451417E-13   6.958134804144408E-14    -2.888643212732571E-14   -2.0570122091213533E-13  3.9093933738084806E-14   5.182177776941446E-14    2.1685546351658352E-14
1.45E-5                   7.876528550939084E-15    3.207553967727977E-14    2.586101312227375E-14    1.2743254570568557E-13   1.4063381315252717E-15   1.0453117325081948E-13   -4.8258394977740326E-14  -4.013030140211858E-13   -9.188573535215649E-14   1.2628325278636575E-13   -1.9587213911007773E-14
1.4999999999999999E-5     2.1947908180826422E-14   1.7255917103849384E-13   2.392922912382136E-13    5.2014139328965584E-14   3.95731431942489E-13     3.8559085930853865E-13   -6.042664069469518E-14   -3.841743482909832E-13   -3.4849620443896495E-13  5.356137726785236E-15    -8.664036170087816E-14
1.55E-5                   6.108167171945071E-14    3.759778374629377E-13    5.165175204240684E-13    6.664930860099397E-14    1.6543601661845926E-12   1.0244125642418906E-12   -1.0256274715994228E-13  -2.660082517305174E-13   -5.02708174616114E-13    -3.328634039808102E-13   -8.522499646785648E-14
1.6E-5                    1.248546767630538E-13    5.219891489244733E-13    5.436777120390737E-13    6.818079809687767E-13    3.0311152046616553E-12   2.073319021027885E-12    -2.7797605002361795E-13  -6.280777185661973E-13   -3.638933963475218E-13   -5.851259083898849E-13   4.1812779981987584E-14
1.6499999999999998E-5     2.1607477196204272E-13   6.17716727721164E-13     3.32130940300375E-13     2.0446832180715622E-12   3.179250137699763E-12    3.6276660606404174E-12   -6.498248473296089E-13   -2.0779762248050385E-12  -2.459899085234682E-13   -4.222250736097476E-13   1.6952367990561923E-13
1.7E-5                    3.85180426004672E-13     9.486852187523611E-13    6.389324075737524E-13    3.1964172523081617E-12   2.259820960232772E-12    6.0877415591872254E-12   -1.085134846016105E-12   -4.669449044579057E-12   -9.81713194203725E-13    -4.2887935956915384E-14  4.741941296353914E-14
1.75E-5                   7.033849131467955E-13    1.8731118282941035E-12   2.2546781807035396E-12   3.092861608447304E-12    3.0713228936584396E-12   1.0359984208839982E-11   -1.3639223219492663E-12  -8.016250803822388E-12   -3.1463667251196857E-12  -2.0177540529609687E-13  -4.1342550381322534E-13
1.8E-5                    1.1323101421410591E-12   3.490744602485735E-12    4.676028865621551E-12    3.0329976886823702E-12   8.922378254218634E-12    1.7417443868638756E-11   -1.6507609969077918E-12  -1.209779773151392E-11   -6.326384543283413E-12   -1.4557585776900057E-12  -9.513394000799719E-13
1.85E-5                   1.544242744561213E-12    5.769903817799473E-12    6.408789988058494E-12    6.900526148801707E-12    2.0050191893382764E-11   2.7185594041834163E-11   -2.7736443964722754E-12  -1.7725009858926778E-11  -9.622866744911148E-12   -3.5324883219068052E-12  -1.1758037242810094E-12
1.8999999999999998E-5     2.131817860102561E-12    9.113983448027194E-12    7.572100799725795E-12    1.715955066391134E-11    3.287974651143517E-11    3.798459856063246E-11    -5.688766162700677E-12   -2.5900070787970126E-11  -1.3113202261484732E-11  -5.779699920836681E-12   -1.0667135307809575E-12
1.95E-5                   3.773337959720556E-12    1.4501958005047856E-11   1.1495452952375276E-11   3.072733676573007E-11    4.329741443441898E-11    4.7623597067434544E-11   -1.0555106637248941E-11  -3.654674583159048E-11   -1.840564533756607E-11   -8.247636032696939E-12   -1.2772341629490518E-12
1.9999999999999998E-5     7.511076348400339E-12    2.259604835528159E-11    2.1740435894862165E-11   4.085746091926718E-11    5.015304771886189E-11    5.504592700132128E-11    -1.660423090957903E-11   -4.776854294948807E-11   -2.711468300817189E-11   -1.199418891058251E-11   -2.8834100480863792E-12
2.05E-5                   1.3329833886880087E-11   3.2470598578341996E-11   3.6851324347794896E-11   4.404765647802601E-11    5.506431881965391E-11    6.025198776816854E-11    -2.299396835197601E-11   -5.6400849924256377E-11  -3.855863963247223E-11   -1.809910672952417E-11   -6.6404411637917045E-12
2.1E-5                    1.9835247961294183E-11   4.135784780716378E-11    4.977582788399181E-11    4.356720129072781E-11    5.931042232953644E-11    6.253843963696713E-11    -2.9355251371502653E-11  -5.971951695910404E-11   -4.920004438743195E-11   -2.6424074947824075E-11  -1.2275368928857397E-11
2.1499999999999997E-5     2.5673169991463394E-11   4.6051383606894204E-11   5.4246347763409864E-11   4.4828197603020665E-11   6.171287172888723E-11    5.981323788823556E-11    -3.523952693266756E-11   -5.712956516845135E-11   -5.4732790409555865E-11  -3.537333596253349E-11   -1.8567314423566415E-11
2.2E-5                    3.094937392625319E-11    4.497076811096482E-11    5.1018085894374505E-11   4.847342317592053E-11    5.931158475142384E-11    5.028320590590152E-11    -3.9521945502009136E-11  -5.0144408124773545E-11  -5.304921036326518E-11   -4.275503755132962E-11   -2.4429685826973487E-11
2.2499999999999998E-5     3.646119846287981E-11    3.8963045525062064E-11   4.5810583836959653E-11   4.970340517139033E-11    4.9081559930060324E-11   3.3949676939092136E-11   -4.0901336222697285E-11  -4.0203578136512006E-11  -4.5398285342834173E-11  -4.6838127542809064E-11  -3.003141147161327E-11
2.3E-5                    4.166215003089405E-11    2.990109969241359E-11    4.1023127322044205E-11   4.33271909285679E-11     2.8699953812390847E-11   1.1351922708573436E-11   -3.8698855699233354E-11  -2.6373436309037228E-11  -3.4697622758033345E-11  -4.6767320549404536E-11  -3.6552685771120164E-11
2.35E-5                   4.4383109018893585E-11   1.837980048608301E-11    3.1603669226937484E-11   2.6792213804168645E-11   -3.319230736407028E-12   -1.8598541368138842E-11  -3.258912384188298E-11   -5.662264316434988E-12   -2.256632390789686E-11   -4.228048978804357E-11   -4.448838666634038E-11
2.4E-5                    4.2704090941215435E-11   2.8846919776077214E-12   1.0335703091018755E-11   -1.7888987146462742E-12  -4.697040698687418E-11   -5.7987848323033503E-11  -2.1887104539234137E-11  2.4094201138255116E-11   -7.796796833946475E-12   -3.3318809438821155E-11  -5.219270513195427E-11
2.45E-5                   3.600363819448073E-11    -1.8735472333340928E-11  -2.4042852063804302E-11  -4.506768241207788E-11   -9.994927312493638E-11   -1.0691054890493999E-10  -6.0579141609643064E-12  6.200269857907157E-11    1.2425137057560497E-11   -2.0041943085181786E-11  -5.630502460840665E-11
2.4999999999999998E-5     2.3845642549854064E-11   -4.710532647095262E-11   -6.548172806699838E-11   -1.0276760133223252E-10  -1.5810267472631714E-10  -1.6250270378374737E-10  1.404916640085961E-11    1.0518504866120072E-10   3.991835612951525E-11    -3.091185630231356E-12   -5.3738926665439E-11
2.55E-5                   5.342067514674694E-12    -8.059195054308501E-11   -1.0677846416505955E-10  -1.6699616361761059E-10  -2.1737855031048892E-10  -2.2177434383920328E-10  3.6670348910485444E-11   1.5200783243489547E-10   7.417039581364786E-11    1.6495350132996334E-11   -4.339499626656207E-11
2.6E-5                    -1.9234732149289378E-11  -1.1642675459602507E-10  -1.455941894401593E-10   -2.2403329343958622E-10  -2.7580966932992133E-10  -2.845911017776492E-10   6.160259209471844E-11    2.0391399244463282E-10   1.1344575813502165E-10   3.796134543650516E-11    -2.6250741199461616E-11
2.65E-5                   -4.7483406700432964E-11  -1.5243906955088395E-10  -1.8436105650836575E-10  -2.6320354280236527E-10  -3.3400013754106774E-10  -3.52920721280568E-10    9.148026735017498E-11    2.639014348465393E-10    1.5687501311583425E-10   6.168226418746312E-11    -4.058634220118946E-12
2.7E-5                    -7.743266372684443E-11   -1.8811178427954239E-10  -2.2574158042502284E-10  -2.8529167296652543E-10  -3.9394161327915273E-10  -4.2740944823359944E-10  1.294430916465227E-10    3.3316035541671136E-10   2.051742648080997E-10    8.955422428634467E-11    2.2160616171916286E-11
2.7499999999999998E-5     -1.1067746405083744E-10  -2.2457332454286252E-10  -2.692028061617247E-10   -3.028060554257023E-10   -4.570358788727091E-10   -5.052520396729921E-10   1.7548354344934408E-10   4.0902765284511756E-10   2.5942529537691656E-10   1.2456802975907057E-10   5.279876885749762E-11
2.8E-5                    -1.510181043957927E-10   -2.63703739157042E-10    -3.11705216439587E-10    -3.313333453332559E-10   -5.222095326994076E-10   -5.80986321636586E-10    2.2579205573063706E-10   4.859872854011744E-10    3.1952282023676246E-10   1.6958099297050423E-10   8.923528744080704E-11
2.8499999999999998E-5     -1.9965127246190943E-10  -3.0663131838407015E-10  -3.5088258534668346E-10  -3.78245436670132E-10    -5.846919231286076E-10   -6.484616662855923E-10   2.7571487332182934E-10   5.58590440767813E-10     3.8384284978149985E-10   2.2570899899740814E-10   1.3282062129023183E-10
2.9E-5                    -2.532030127825482E-10   -3.5220384838778535E-10  -3.8691533731005E-10     -4.369873608074574E-10   -6.360151147691306E-10   -7.017886746946872E-10   3.22598433946613E-10     6.234720361156654E-10    4.498409549079831E-10    2.9122244221981115E-10   1.8415239060213527E-10
2.95E-5                   -3.0683621202608034E-10  -3.9643130618277126E-10  -4.208228698247972E-10   -4.910294801888046E-10   -6.65691099675921E-10    -7.348138773177833E-10   3.6556236265945256E-10   6.785494837280681E-10    5.143536628136158E-10    3.618207517966704E-10    2.431285475985249E-10
2.9999999999999997E-5     -3.576340274642897E-10   -4.3341744760730253E-10  -4.5065412743310076E-10  -5.239446879745565E-10   -6.642147937525841E-10   -7.403440701206868E-10   4.0343260439805115E-10   7.20205247507263E-10     5.733208957703941E-10    4.3224488638992967E-10   3.0938967617311215E-10
3.05E-5                   -4.042029482022514E-10   -4.5691965522462857E-10  -4.69604953022688E-10    -5.270817270131826E-10   -6.258497779547637E-10   -7.108574558999487E-10   4.337411889806928E-10    7.412717621649132E-10    6.215836271302154E-10    4.980040246655901E-10    3.823378019923027E-10
3.1E-5                    -4.446973548924006E-10   -4.611426490060098E-10   -4.684019957901853E-10   -4.991891393972213E-10   -5.492343090789243E-10   -6.409964440631566E-10   4.533799470384915E-10    7.319703983840827E-10    6.530040685780306E-10    5.558294068401173E-10    4.604108166891304E-10
3.15E-5                   -4.767392349574076E-10   -4.407005596213936E-10   -4.397288280787868E-10   -4.406212458398102E-10   -4.350228340069053E-10   -5.294046296081567E-10   4.5925795038167607E-10   6.831619755370487E-10    6.606835035350535E-10    6.026802905279021E-10    5.401192993204765E-10
3.2E-5                    -4.981188530149081E-10   -3.9104019212630214E-10  -3.803264424621626E-10   -3.493502073649755E-10   -2.8208194451725936E-10  -3.769528772657225E-10   4.480116028601909E-10    5.890595882406153E-10    6.375942073715306E-10    6.344942635703146E-10    6.156861626162827E-10
3.25E-5                   -5.056465349678505E-10   -3.0974693031414253E-10  -2.893447537541642E-10   -2.2206980853862355E-10  -8.54697829065457E-11    -1.8216876716697987E-10  4.155310190992558E-10    4.471567873985356E-10    5.780430946077333E-10    6.459389454454239E-10    6.797892973355597E-10
3.2999999999999996E-5     -4.935254668222044E-10   -1.9716863674180905E-10  -1.6571475479745767E-10  -5.699837253826544E-11   1.6131920117703623E-10   6.13060000412963E-11     3.571141102915114E-10    2.559322680037529E-10    4.789351964058889E-10    6.312316493767675E-10    7.251723941925895E-10
3.35E-5                   -4.5450016395275263E-10  -5.492981161043489E-11   -7.572422381119556E-12   1.458806012133474E-10    4.6077860004353385E-10   3.617503196812743E-10    2.6803485032589003E-10   1.3000456323785618E-11   3.3899140440858105E-10   5.850610039291176E-10    7.460914322122477E-10
3.4E-5                    -3.8317360258912887E-10  1.164749789639382E-10    1.864298926632702E-10    3.8653160533886283E-10   8.069362348246455E-10    7.229113914853976E-10    1.441925635979685E-10    -2.843353685285786E-10   1.5616476804973666E-10   5.027458328140478E-10    7.383124992358089E-10
3.45E-5                   -2.776636591728169E-10   3.182294238090159E-10    4.15980084462164E-10     6.648426189700671E-10    1.1863391771305118E-9    1.1392399121670899E-9    -1.6892713995222394E-11  -6.367380713848813E-10   -7.3743568573986E-11     3.796157826296034E-10    6.973581841158087E-10
3.5E-5                    -1.3817779726691505E-10  5.50983178220271E-10     6.788407939168173E-10    9.777750029528062E-10    1.5840894180252098E-9    1.5960633062864591E-9    -2.1475388650980825E-10  -1.0409111895522643E-9   -3.5501932246971796E-10  2.1037701890113397E-10   6.164746730149731E-10
3.5499999999999996E-5     3.5067839319845386E-11   8.12070391899191E-10     9.7050288486378E-10      1.316568803782422E-9     1.989358994839581E-9     2.0741346860320677E-9    -4.4538227988784655E-10  -1.4894887373471093E-9   -6.881227326518682E-10   -1.0466491263635222E-11  4.865104482403428E-10
3.6E-5                    2.423209248035892E-10    1.0947554239406865E-9    1.2833823508879367E-9    1.6668659376150796E-9    2.394748977469069E-9     2.555295952229481E-9     -7.024140908749836E-10   -1.9721094784886102E-9   -1.067615293156341E-9    -2.865573848517872E-10   2.983552368234267E-10
3.65E-5                   4.835619104235642E-10    1.389556553354665E-9     1.6065973597454193E-9    2.0113691948429367E-9    2.7896796618050115E-9    3.0249504983494915E-9    -9.794756856816327E-10   -2.4759626933471177E-9   -1.4835027951178588E-9   -6.168752717623048E-10   4.6180478819366154E-11
3.7E-5                    7.578484978081659E-10    1.68566947262168E-9      1.92708610090139E-9      2.332615803992614E-9     3.154023522648227E-9     3.468875622646697E-9     -1.271553047036569E-9    -2.984915779743554E-9    -1.9242111007112656E-9   -9.944123313480983E-10   -2.7091569888542645E-10
3.75E-5                   1.0628507067204948E-9    1.971230058504046E-9     2.2311904705789047E-9    2.614240040187817E-9     3.458149675608518E-9     3.867124982819524E-9     -1.573854578840528E-9    -3.478218406869347E-9    -2.3783759043016264E-9   -1.4079230637898543E-9   -6.495546618488633E-10
3.7999999999999995E-5     1.3940134845439079E-9    2.2328981354353874E-9    2.505071501867843E-9     2.840681247323774E-9     3.6695391393334864E-9    4.191609488810404E-9     -1.8789468870675265E-9   -3.9307625194745805E-9   -2.834019939684337E-9    -1.8455663825768188E-9   -1.0838062039384083E-9
3.85E-5                   1.7433950853931045E-9    2.4555120434828104E-9    2.7332960880382905E-9    2.9959988342366123E-9    3.7604431683963364E-9    4.410532512401507E-9     -2.1745705365248234E-9   -4.315532858422256E-9    -3.275787637271757E-9    -2.297168022678059E-9    -1.5665631871744188E-9
3.9E-5                    2.098997503687605E-9     2.6218237508715013E-9    2.896592967879396E-9     3.0627310806970656E-9    3.711078159248811E-9     4.4950589463068905E-9    -2.4438038719965574E-9   -4.606259677317438E-9    -3.6825420834419405E-9   -2.7530474798131445E-9   -2.089965787283618E-9
3.95E-5                   2.4453109195272E-9       2.7124946716677917E-9    2.970849089542509E-9     3.0219192145855678E-9    3.5075131541057443E-9    4.421293306089315E-9     -2.6670276947664E-9      -4.777563590185656E-9    -4.027676590552017E-9    -3.2007403785381546E-9   -2.644679128401116E-9
3.9999999999999996E-5     2.7646967601281834E-9    2.707264432409613E-9     2.929094748096454E-9     2.854641095455943E-9     3.137420515589096E-9     4.1669917058736185E-9    -2.8238518386843414E-9   -4.80257927975558E-9     -4.2821987731140505E-9   -3.6227378202440175E-9   -3.2178807908556456E-9
4.0499999999999995E-5     3.0381510025831575E-9    2.5875723177274763E-9    2.7462390824118985E-9    2.543745496220263E-9     2.5872061588635565E-9    3.7089559644853118E-9    -2.8939518979328294E-9   -4.651277188379378E-9    -4.417905694976342E-9    -3.996775932912307E-9    -3.790596689529884E-9
4.1E-5                    3.244633264190576E-9     2.339192977864005E-9     2.4039203072655337E-9    2.0741430629838034E-9    1.842352437163987E-9     3.025657096276922E-9     -2.8573934716501696E-9   -4.2923643311964765E-9   -4.408206441341286E-9    -4.297424139718992E-9    -4.336140752083601E-9
4.15E-5                   3.360434656184914E-9     1.953088602209099E-9     1.8925934382836958E-9    1.4323280766454922E-9    8.915378255116247E-10    2.1032321161268276E-9    -2.6956019798924196E-9   -3.697995358570713E-9    -4.227362922939227E-9    -4.4969302679019435E-9   -4.821112612581318E-9
4.2E-5                    3.3609842039427367E-9    1.4243363741981073E-9    1.2106892887372515E-9    6.082450928163984E-10    -2.6612175111656235E-10  9.399152077447127E-10    -2.3933151702452983E-9   -2.848063169758086E-9    -3.850905145339334E-9    -4.5649861971853744E-9   -5.20838818935817E-9
4.2499999999999996E-5     3.224953057265078E-9     7.505634169263815E-10    3.6340419671954324E-10   -3.9873428521142833E-10  -1.6137254203842153E-9   -4.533993663720894E-10   -1.9407585315541773E-9   -1.7322707994481923E-9   -3.2582151065094052E-9   -4.469026329950085E-9    -5.459948157400787E-9
4.2999999999999995E-5     2.9372670155523227E-9    -6.8601315173118E-11     -6.36926572327718E-10    -1.5727240196880204E-9   -3.1139294970420456E-9   -2.0548748653125217E-9   -1.334896224984604E-9    -3.510665975174627E-10   -2.435532687201013E-9    -4.17667634146575E-9     -5.538100826605231E-9
4.35E-5                   2.488297371961555E-9     -1.030103822532979E-9    -1.769888834888651E-9    -2.8789466789005876E-9   -4.713751508989699E-9    -3.833043951477837E-9    -5.79061786313526E-10    1.2829586507877798E-9    -1.3775306754766636E-9   -3.6600460280472775E-9   -5.405717932856584E-9
4.4E-5                    1.8708203972720664E-9    -2.123677184941925E-9    -3.0076810322184636E-9   -4.268794843848175E-9    -6.354204336939833E-9    -5.746568205785632E-9    3.1866140089229745E-10   3.1435560072254857E-9    -8.748454943225674E-11   -2.8996373816774334E-9   -5.027081361333221E-9
4.45E-5                   1.0789220094617479E-9    -3.3266972538395756E-9   -4.317512632943131E-9    -5.688814078790664E-9    -7.97821447587763E-9     -7.743242478150656E-9    1.3467555702507657E-9    5.190781945514423E-9     1.4229547625444262E-9    -1.885690908227216E-9    -4.370072768769253E-9
4.4999999999999996E-5     1.1061823119406685E-10   -4.600725013452906E-9    -5.663433739969609E-9    -7.087130504763554E-9    -9.531667702443378E-9    -9.759696624435885E-9    2.4895550786093814E-9    7.372773480481208E-9     3.1337371346197332E-9    -6.16980458668118E-10    -3.409140151515386E-9
4.5499999999999995E-5     -1.0281508869794253E-9   -5.8930307055453494E-9   -7.005815172549952E-9    -8.41376398376768E-9     -1.0957663258662332E-8   -1.1722388188107502E-8   3.7244637997942E-9       9.6276206125532E-9       5.015712108296722E-9     9.006144476358736E-10    -2.1280559624640933E-9
4.6E-5                    -2.3213221777746048E-9   -7.1433904208455654E-9   -8.299118231298992E-9    -9.616516959624344E-9    -1.2188819724231159E-8   -1.3549437231119309E-8   5.0193625017754645E-9    1.1883623028492095E-8    7.028912835393183E-9     2.6533328734186938E-9    -5.218047895811811E-10
4.65E-5                   -3.743001130800124E-9    -8.29239228019251E-9     -9.489996210208327E-9    -1.0636906715941457E-8   -1.3144029323401286E-8   -1.5153111093091117E-8   6.332649429329254E-9     1.4058522370569043E-8    9.12052421900769E-9      4.616453926430711E-9     1.402545090404269E-9
4.7E-5                    -5.259019811684039E-9    -9.286188266887763E-9    -1.0517145740209796E-8   -1.1409697772630497E-8   -1.373395626999259E-8    -1.6443660286088818E-8   7.615752790484194E-9     1.606021341136186E-8     1.1224426362061348E-8    6.751239260047661E-9     3.62546567952099E-9
4.7499999999999996E-5     -6.828714968991924E-9    -1.0075393692151599E-8   -1.1312960740446176E-8   -1.1866880565028504E-8   -1.3874463914815038E-8   -1.7334545938452727E-8   8.81559512384089E-9      1.7790550966622004E-8    1.3263508359630043E-8    9.004328166698902E-9     6.1140006799986855E-9
4.8E-5                    -8.406224094378234E-9    -1.0610411057374565E-8   -1.1806358504866327E-8   -1.1944413008002208E-8   -1.350152450490789E-8    -1.774703669177221E-8    9.875425835577686E-9     1.915103751881389E-8     1.5153610490411462E-8    1.1309842978069468E-8    8.819509025366294E-9
4.85E-5                   -9.940304773231141E-9    -1.083825509822513E-8    -1.1926589542188338E-8   -1.1588731616199307E-8   -1.2579515209301871E-8   -1.7612078396130576E-8   1.073533149520661E-8     2.0047583077370992E-8    1.6806790775327666E-8    1.35922713772254E-8      1.1674939886352545E-8