% Model:              Untitled.mph
% Version:            COMSOL 6.0.0.405
% Date:               Jul 17 2025, 01:04
% Dimension:          1
% Nodes:              401
% Expressions:        11
% Description:        Point graph
% Time (s)                Displacement field, Y component Displacement field, Y component Displacement field, Y component Displacement field, Y component Displacement field, Y component Displacement field, Y component Displacement field, Y component Displacement field, Y component Displacement field, Y component Displacement field, Y component Displacement field, Y component
0                         -6.110613213256831E-32   -3.0034376271476323E-33  -7.296317525020789E-34   -7.353592026766383E-35   1.8224220802891627E-30   4.241638683668473E-30    1.4835931480232332E-30   6.381366129716819E-31    5.525637758150077E-35    6.22090140120218E-35     2.0772454756187243E-35
5.0E-7                    -2.120333268588329E-23   3.0742863789166247E-25   6.420726317437021E-26    8.772524150365438E-27    -2.9906490869293567E-22  -3.103039121764274E-22   -2.2614992909567187E-22  -4.409164902566958E-23   -3.381955986227362E-27   -5.7377160862990026E-27  8.019480140027309E-27
1.0E-6                    2.6988810538393042E-22   1.5577501701047363E-24   7.531335628739438E-25    -8.945107586951717E-28   7.176440423302884E-22    -3.929278924928598E-21   7.183149339872214E-23    -3.5180924977079103E-22  -2.7377810642044735E-26  -4.4180422762099546E-26  -1.255489557014766E-25
1.5E-6                    -9.153661124465934E-22   -1.2177225264005717E-23  -6.975249788032904E-24   -6.344751977629652E-26   5.498801758824637E-21    2.6913281819913832E-20   2.5339166753030025E-21   2.3848415338069953E-21   3.9932721721869824E-26   3.8846168658616574E-25   4.513426527719663E-25
2.0E-6                    9.832949654691084E-22    3.834578989248077E-23    2.5331621810201417E-23   8.39017105087319E-25     -5.492591311483818E-20   -8.934330694443117E-20   -1.4179073967893864E-20  -6.746639402108294E-21   3.078658177813408E-25    -1.3278315247108186E-24  -3.6780963994593023E-25
2.4999999999999998E-6     2.8801312030720338E-21   -3.892276070908924E-23   -2.7460991561055575E-23  -4.691575437102202E-24   1.4496729231488174E-19   1.8986974222617917E-19   3.4559591311992315E-20   7.762001290040958E-21    -8.601634908176328E-25   1.5940146023874832E-24   -1.1355958361289198E-24
3.0E-6                    -7.536143233142886E-21   -1.1334022230010277E-22  -8.808222625667985E-23   1.0489127126730784E-23   4.2630404830998895E-20   -1.465018572623307E-19   -1.2660774870874975E-20  1.6114182721688092E-20   -1.828410467061026E-24   1.9694318256129624E-24   2.6500786853635874E-24
3.5E-6                    -1.663833945360025E-20   3.15500593810098E-22     2.687268524586676E-22    7.239910506688162E-24    -7.014020612336198E-19   -8.287026751538456E-19   -1.2089556202199005E-19  -4.416975336524696E-20   1.0498667139191853E-23   -7.498018796401896E-24   -7.66073687686863E-26
4.0E-6                    4.1678148004334904E-20   3.1250167079285647E-22   5.31971118593485E-23     -7.947135842293866E-23   4.3297607545090783E-19   2.8327023112704275E-18   1.7860835207468208E-19   -5.410146237205273E-20   -6.542709013428656E-24   6.64910564502087E-24     -7.178555636304363E-24
4.5E-6                    1.1585890927982886E-19   -2.0699589303441216E-21  -1.0476016582401955E-21  9.199256761625454E-23    1.3161697178873098E-18   3.0648951530018325E-19   4.269308702774039E-19    7.331137901173305E-20    -4.968365902676376E-23   5.476515838856155E-24    3.867913108801379E-24
4.9999999999999996E-6     -1.861480861245569E-19   2.0612629670741997E-21   8.61522070819878E-22     2.5738766625607113E-22   -5.045715350987736E-19   -1.2562611007668805E-17  -6.601375081391489E-19   4.144305717778097E-19    7.925031675273E-23       -2.92817407666681E-23    1.8599911978634604E-24
5.5E-6                    -6.073645987864013E-19   1.3300605634885976E-20   2.668329193598228E-21    -7.130918098944665E-22   1.3026179107966457E-18   6.182999241931236E-18    -2.133715255911533E-18   8.790568844131527E-19    1.7488592627394568E-22   3.975506904503731E-23    1.5550186288910873E-23
6.0E-6                    4.605579331782651E-19    -4.119882555016465E-20   -6.588343067502159E-21   -3.5037202869266607E-22  -4.701070052442126E-18   3.948972134841073E-17    3.520831488549557E-18    -1.1595172563098112E-18  -3.6431110143935366E-22  3.748892365514843E-23    1.7262072540871205E-22
6.5E-6                    2.416779414258195E-18    -8.741021130642581E-20   -3.6109684090012365E-21  3.567122446310296E-21    -1.8015285488441413E-17  -2.0243992540497545E-17  1.102694764951631E-17    -8.593868187819308E-18   -6.216805479878393E-22   -2.981371176388854E-22   -8.260892651234222E-23
7.0E-6                    -2.0043726453731283E-19  3.16904013594316E-19     3.6534523635096356E-20   -1.543331407221823E-21   3.176192397527321E-17    -9.329735760739836E-17   -1.2886860742543408E-17  -4.1192419115306484E-18  1.2292123709395068E-21   7.526348952940898E-23    -1.3847088151542507E-21
7.499999999999999E-6      -8.642660408012325E-18   6.08360107079566E-19     4.646600552618911E-21    -1.7074779174774307E-20  9.830529479237851E-17    4.400727043887912E-17    -3.624835425898878E-17   4.203376060008468E-17    2.520313216506403E-21    1.719412321704365E-21    -7.356517073150908E-22
8.0E-6                    -7.568691427603656E-18   -1.5186384601831474E-18  -1.7554414522505584E-19  1.3566902652864436E-20   -5.170139327698281E-17   2.1161786843006653E-16   5.98691290616153E-17     6.971354205599119E-17    -3.82232813051462E-21    3.5389373931791885E-22   5.421054836660412E-21
8.5E-6                    1.8950746753064657E-17   -3.919794762912753E-18   -9.764904867794423E-20   8.24859340647509E-20     -2.471493758025943E-16   4.0525868692643545E-17   1.5521755302754933E-16   -8.042738436230223E-17   -1.3765816801017914E-20  -7.038591001515584E-21   7.464458624995666E-21
9.0E-6                    3.7428059928941607E-17   3.5336031905960496E-18   6.884949188393882E-19    -5.034798304176351E-20   1.0414339712845204E-16   -1.8428549314904572E-16  -1.1096379398588228E-16  -3.1435583956482173E-16  5.338914054435847E-21    -8.876414125085927E-21   -9.099422858432677E-21
9.499999999999999E-6      -3.3387334433528935E-17  1.6596751535833038E-17   9.385359119747375E-19    -3.7504046933351884E-19  6.768783313860723E-16    -3.713708610748429E-17   -3.6548262058326506E-16  -5.2012005231972446E-17  7.873861200239913E-20    1.143648146747129E-20    -2.4969827563646095E-20
9.999999999999999E-6      -1.7635985788812129E-16  -3.639293254820571E-18   -2.288074321635081E-18   3.1525821885698977E-20   5.477681583571554E-16    2.8129960861325755E-16   5.18604930637825E-16     9.760831577357064E-16    7.827509977144201E-20    5.018226505953175E-20    -6.7075571660051735E-21
1.05E-5                   -1.6038466813858263E-16  -6.814185570393815E-17   -6.890603561448538E-18   1.4166106587118936E-18   5.688570443697141E-16    1.250382194139151E-15    1.8282224740605088E-15   1.5236646286353082E-15   -2.960129834254022E-19   6.35382490498193E-20     9.650175507176901E-21
1.1E-5                    1.5937847377294837E-16   -6.61091883606059E-17    1.230024714945696E-18    6.885367062906321E-19    1.5071695027010196E-15   3.3047149651087606E-15   4.681541062539728E-16    -4.082999142531436E-16   -7.824397043507944E-19   -8.603064549336839E-20   1.5651416838905098E-21
1.15E-5                   3.1167062149077566E-16   1.0414889712021114E-16   2.5746234105584803E-17   -4.4301616446956714E-18  4.68741219781967E-16     2.6618372923029165E-15   -2.726016060323703E-15   -3.856420126019254E-15   2.8490648775237494E-19   -5.011486958251277E-19   1.5630270318137244E-19
1.2E-5                    -5.156226606217901E-16   1.772823277238896E-16    1.1740573872991307E-17   -5.615132873079557E-18   -7.591922590488172E-16   -2.477952939624017E-15   9.404861055231538E-16    -2.073744381897821E-15   3.568690439425392E-18    -5.281503475316239E-19   4.826737464599142E-19
1.2499999999999999E-5     -2.2240631549449134E-15  -3.8270508030528943E-16  -1.0633877255764746E-16  8.585607678302319E-18    1.3644067675614125E-14   4.500539425099502E-15    1.586971764733375E-14    1.1443261290025835E-14   3.4054602905181115E-18   1.3502247200034179E-18   -1.310937747393671E-20
1.3E-5                    -3.68005092552493E-15    -1.369393552678482E-15   -1.9811067514698727E-16  2.1624110365940103E-17   5.047990848026041E-14    4.3901584122330945E-14   2.7302970789016932E-14   2.7420990935721837E-14   -7.812383655992449E-18   4.2828221746030316E-18   -2.278588649790704E-18
1.35E-5                   -5.060562107545966E-15   -1.3180852781037387E-15  4.4100793378348704E-17   -9.325214015591752E-18   7.612270126943994E-14    8.822601313244759E-14    1.8640168651059418E-14   1.913649164927193E-14    -1.8966745381130107E-17  1.453793269690705E-18    -3.527422533604584E-18
1.4E-5                    -9.21284649344851E-15    2.5852050570260795E-16   4.2256428037473366E-16   -7.436784279894989E-17   6.207480544562783E-14    8.255508131462614E-14    1.7477143360699914E-14   -1.6226234450804703E-14  2.1482267053195754E-18   -1.2215000474593983E-17  2.7727216921602416E-18
1.45E-5                   -1.8479989148216973E-14  -5.115833619349798E-16   -2.286941416834318E-16   -6.674799397330572E-17   9.166926889288845E-14    9.223991232649564E-14    1.0372586863734889E-13   -6.987012975705309E-15   5.465432103879948E-17    -2.1371678475287355E-17  1.5743037744779345E-17
1.4999999999999999E-5     -3.3351386090353567E-14  -9.646932381375971E-15   -2.474564058211267E-15   5.895153205559068E-17    3.4926534213724405E-13   3.488481447872283E-13    3.3115992229337767E-13   1.480154723555106E-13    6.170774267127862E-17    6.4906137064964995E-18   1.4819649067798487E-17
1.55E-5                   -6.339620078917904E-14   -2.5373704745243106E-14  -3.921943728965169E-15   7.87801165977104E-17     9.189430346037598E-13    9.621175334420235E-13    6.351613918219153E-13    4.2509309653847954E-13   -3.3187000120631575E-17  6.916690480785688E-17    -2.361295438721158E-17
1.6E-5                    -1.4057608799732993E-13  -3.4352311806962026E-14  -1.6322046222061242E-15  -3.0137986019053087E-16  1.6668780653240414E-12   1.6607445991765555E-12   8.970306427080525E-13    6.275519436243086E-13    -1.1341538128578938E-16  8.378934104519598E-17    -7.40306767592256E-17
1.6499999999999998E-5     -3.0376912161558283E-13  -3.220214583371437E-14   4.277971231236185E-17    -8.92744823578311E-16    2.5311718954477548E-12   2.2394176759182303E-12   1.2402052289920297E-12   6.574086902443406E-13    1.7819213940201728E-17   -4.530661429109547E-17   -4.214225524853804E-17
1.7E-5                    -5.585651440143997E-13   -5.4501474071371415E-14  -1.104187668561066E-14   -1.1254702806985902E-15  4.030056766537772E-12    3.4437098473723626E-12   2.3155213249918285E-12   8.939333297565243E-13    3.2323723382990767E-16   -2.516160726587628E-16   1.2866697406735167E-16
1.75E-5                   -8.988331081645581E-13   -1.6640120189583883E-13  -3.7839261978336037E-14  -1.3058297779148833E-15  7.339648817498658E-12    6.9024676098822246E-12   5.089277066913682E-12    2.135344922367657E-12    5.563144284794006E-16    -2.38731330748135E-16    2.8282231838498134E-16
1.8E-5                    -1.4673095908761075E-12  -3.944265797112974E-13   -6.070307243545468E-14   -3.2014457697090227E-15  1.3648384401427262E-11   1.3581392667563462E-11   1.0008926450367073E-11   4.9696225868430795E-12   7.778989745187848E-16    2.5515005014371104E-16   9.390958667639584E-17
1.85E-5                   -2.727975223507738E-12   -6.953411771717814E-13   -6.412023185747048E-14   -7.852229150793926E-15   2.3339526881968938E-11   2.249643374255112E-11    1.634763066456456E-11    9.217571638607088E-12    1.4472034230716058E-15   9.834106855239867E-16    -4.943073114095946E-16
1.8999999999999998E-5     -5.328577498023811E-12   -1.0825757758610312E-12  -8.833390745072923E-14   -1.3332620700064758E-14  3.5707502157905836E-11   3.1624040607024E-11      2.279716483935288E-11    1.4126217232893281E-11   2.59677678057325E-15     1.089473965475709E-15    -8.45628392591583E-16
1.95E-5                   -9.544352455051773E-12   -1.8359028210947845E-12  -2.2577189532317304E-13  -1.8576234881040392E-14  4.913267982933271E-11    4.006508924366153E-11    2.896374526092831E-11    1.9098748603450705E-11   3.638548988821237E-15    -6.48722675261096E-17    -6.439596721706305E-17
1.9999999999999998E-5     -1.4773263991885928E-11  -3.4961636805992785E-12  -5.324957444770854E-13   -3.1230531536480385E-14  6.122963708288402E-11    4.850534624713573E-11    3.577446888863327E-11    2.4105658251712966E-11   5.211902550581596E-15    -1.5512991624696826E-15  1.670175455648289E-15
2.05E-5                   -1.976179283001792E-11   -6.47894508370092E-12    -9.751142119749904E-13   -6.619115803554696E-14   6.919788666911754E-11    5.7164004948258713E-11   4.3722070847709166E-11   2.935816166363715E-11    1.0782414619366769E-14   -7.35019913063419E-16    2.4408337210577315E-15
2.1E-5                    -2.3538073351955346E-11  -1.0617378769957547E-11  -1.5560345591850077E-12  -1.319596085854424E-13   7.096885158204887E-11    6.393770906728636E-11    5.0954176261294286E-11   3.465249229611753E-11    2.453970044653931E-14    4.257955652459661E-15    3.3269960585139054E-16
2.1499999999999997E-5     -2.610355613045785E-11   -1.51683398323369E-11    -2.5237372107167815E-12  -2.30119719685067E-13    6.641689458819802E-11    6.529955714488674E-11    5.408171875865868E-11    3.901942194032333E-11    4.817372972786211E-14    1.127772446947278E-14    -3.432328147936282E-15
2.2E-5                    -2.806122368737919E-11   -1.935678353951236E-11   -4.345990945883364E-12   -3.8856038963467355E-13  5.677962491386396E-11    5.89128015706486E-11     5.117512402083117E-11    4.0994296844943796E-11   8.388789551002707E-14    1.5008287248556727E-14   -4.0045648834041096E-15
2.2499999999999998E-5     -2.957300791732837E-11   -2.2875365456456307E-11  -7.301405219323629E-12   -6.942912639321684E-13   4.223910404388897E-11    4.485757106299645E-11    4.3178347718635396E-11   3.9421725754486854E-11   1.4345115373664808E-13   1.4108325801434655E-14   2.4184714017696972E-15
2.3E-5                    -2.983876338979175E-11   -2.5789854505079143E-11  -1.1045794868138307E-11  -1.2676757469000464E-12  2.0616518057809183E-11   2.4345760811920866E-11   3.185880111921788E-11    3.422152009917413E-11    2.521207464776044E-13    1.8205575613386023E-14   1.2628446334855987E-14
2.35E-5                   -2.7642418904396676E-11  -2.8046701094975542E-11  -1.4699840805194375E-11  -2.193177260842726E-12   -1.0507992648410303E-11  -2.1845390752914703E-12  1.699941703895295E-11    2.6222627431744564E-11   4.426214888357054E-13    4.4413499387364554E-14   1.7223939976004996E-14
2.4E-5                    -2.2295098636062662E-11  -2.924187229601351E-11   -1.748830136813344E-11   -3.491761579118425E-12   -5.0456508602309094E-11  -3.543984924640388E-11   -3.728682133532529E-12   1.584434027663096E-11    7.517833208007257E-13    1.0355710529807525E-13   1.0962241864442406E-14
2.45E-5                   -1.398397770486427E-11   -2.885626570554027E-11   -1.9272856239923196E-11  -5.145034362577647E-12   -9.545008761254763E-11   -7.619048682323567E-11   -3.262637071088362E-11   1.8285037783598347E-12   1.226252536424624E-12    1.9282659943422298E-13   3.631702702332537E-15
2.4999999999999998E-5     -3.2062481665757707E-12  -2.6467217157866867E-11  -2.0389175278491697E-11  -7.062544852921209E-12   -1.4281223863088353E-10  -1.2439628719780402E-10  -7.050574876457887E-11   -1.8455892688589697E-11  1.912242731445129E-12    3.112258722507552E-13    1.7483794614351204E-14
2.55E-5                   1.0278233658454295E-11   -2.1536910893367273E-11  -2.1050000426830444E-11  -8.970510376223078E-12   -1.9484847110958347E-10  -1.7943541858281384E-10  -1.169375615195177E-10   -4.7243226432923143E-11  2.8054479578161657E-12   4.887547614842275E-13    6.856068796870599E-14
2.6E-5                    2.8100403362263654E-11   -1.3134065250296895E-11  -2.1097694824281215E-11  -1.0423376956429554E-11  -2.575484671426316E-10   -2.4075025670868437E-10  -1.7072303264808355E-10  -8.485473914612624E-11   3.800159151204713E-12    7.954251078583637E-13    1.4890005992105051E-13
2.65E-5                   5.25978077940376E-11     -2.2465278503497446E-13  -2.0306387179200964E-11  -1.1088892762912082E-11  -3.346145702803255E-10   -3.079495238477558E-10   -2.2981328529196426E-10  -1.2967516047973956E-10  4.717741133355934E-12    1.3071227203632065E-12   2.33528006149529E-13
2.7E-5                    8.475168298578079E-11    1.7570275548613987E-11   -1.8554136430378602E-11  -1.1058393936255409E-11  -4.2257427998130423E-10  -3.8032805121684065E-10  -2.917318876538261E-10   -1.7922136785250947E-10  5.416204481621071E-12    2.049369647101757E-12    3.1724967797868996E-13
2.7499999999999998E-5     1.225086149740146E-10    3.9670714927243936E-11   -1.537620664363885E-11   -1.0754999508099235E-11  -5.122088661416385E-10   -4.5629826437815244E-10  -3.549009622630133E-10   -2.3129637692194265E-10  5.857062505568977E-12    2.967675546666034E-12    4.536106454131247E-13
2.8E-5                    1.617932696380218E-10    6.525018530240001E-11    -9.49998879134866E-12    -1.0453276335632619E-11  -5.95118164217869E-10    -5.329742605251706E-10   -4.1925153614582727E-10  -2.847003420813791E-10   6.0296660494479905E-12   3.944161237288017E-12    7.523500912159071E-13
2.8499999999999998E-5     1.999699653120668E-10    9.423675318148957E-11    7.200188357456163E-13    -9.94503638360017E-12    -6.683067991938813E-10   -6.060138358838871E-10   -4.847697744667835E-10   -3.3919110084954854E-10  5.828936953604171E-12    4.82666801427857E-12     1.3136858708165008E-12
2.9E-5                    2.381838577313896E-10    1.2736149415763073E-10   1.6190781595063166E-11   -8.697940762456243E-12   -7.315857122873147E-10   -6.699322745822368E-10   -5.491793038837593E-10   -3.944892821412526E-10   5.0852713383725146E-12   5.437339263255102E-12    2.129565812715013E-12
2.95E-5                   2.7952307928046304E-10   1.6514485410919547E-10   3.656457111650677E-11    -6.180219066947051E-12   -7.812494269403528E-10   -7.187635240256924E-10   -6.071563085514355E-10   -4.489741154059192E-10   3.751133278210214E-12    5.592923638140319E-12    3.0282372287541948E-12
2.9999999999999997E-5     3.2457362065036584E-10   2.0702487711437728E-10   6.093063178475462E-11    -1.8678996674833463E-12  -8.081846083977148E-10   -7.464849337330852E-10   -6.516770588556978E-10   -4.993405585270752E-10   1.9784273870838843E-12   5.1907703523866026E-12   3.736029503330703E-12
3.05E-5                   3.6914022964207044E-10   2.5146164015441916E-10   8.879257814215821E-11    4.940336496294526E-12    -8.024955434627259E-10   -7.469763802447931E-10   -6.758299468260927E-10   -5.414082424788102E-10   -1.1000043730217211E-13  4.3095403632771815E-12   4.055368646911877E-12
3.1E-5                    4.0649884151643955E-10   2.9640265977007433E-10   1.201428969339319E-10    1.49405164130133E-11     -7.580301622279743E-10   -7.139697745625998E-10   -6.73477840650164E-10    -5.707246512469356E-10   -2.7440162670334863E-12  3.1631949726977896E-12   4.041689530323534E-12
3.15E-5                   4.315572644931476E-10    3.3924307024289294E-10   1.5474114639804474E-10   2.8177489841978555E-11   -6.711501173357233E-10   -6.412950617799528E-10   -6.389607147312079E-10   -5.820964057015208E-10   -6.4914646460509094E-12  1.8511019111965653E-12   4.004061426381645E-12
3.2E-5                    4.4273162260684043E-10   3.7669045988150534E-10   1.9166373600149782E-10   4.362251949937046E-11    -5.367464690063094E-10   -5.232127354860237E-10   -5.670292957686214E-10   -5.691442675784223E-10   -1.1802144207999181E-11  1.303777331716577E-13    4.25580408901819E-12
3.25E-5                   4.402796374662385E-10    4.054624312712557E-10    2.2960412443292673E-10   5.967789469658375E-11    -3.4781499903783044E-10  -3.548709154012727E-10   -4.534319661172379E-10   -5.25290131811679E-10    -1.854436527057567E-11   -2.473558468652674E-12   4.768882860684129E-12
3.2999999999999996E-5     4.231767122900209E-10    4.233565445909708E-10    2.6730681281054464E-10   7.54089185320906E-11     -9.896229988748458E-11   -1.3321436902360242E-10  -2.9546287955523035E-10  -4.4561224269778673E-10  -2.6039760829125956E-11  -6.240079941178302E-12   5.032978756434064E-12
3.35E-5                   3.872720066504613E-10    4.2911978109147145E-10   3.034400939790379E-10    9.140876356484032E-11    2.1100100594662366E-10   1.4217623076674592E-10   -9.180814272053002E-11   -3.276999606381408E-10   -3.358507722239058E-11   -1.0953007587075572E-11  4.293416899399121E-12
3.4E-5                    3.260287013648132E-10    4.2087462109196797E-10   3.360739915165548E-10    1.0929781748114595E-10   5.797024974633574E-10    4.695119738347134E-10    1.5809438214925092E-10   -1.708688193499246E-10   -4.093874284156104E-11   -1.6099729983694884E-11  2.0137590374359177E-12
3.45E-5                   2.332561592114298E-10    3.9497869146256686E-10   3.6247982737814413E-10   1.300268264628505E-10    1.0027502957901865E-9    8.462864136340337E-10    4.544571575756821E-10    2.5050499331682162E-11   -4.8311114084829416E-11  -2.1382170271653852E-11  -1.8021141663878624E-12
3.5E-5                    1.0577283297063552E-10   3.4684112123630175E-10   3.79537949014596E-10     1.5239966108037093E-10   1.4740040387690226E-9    1.2696963198660381E-9    7.967986974989629E-10    2.601028436129128E-10    -5.591281112566298E-11   -2.697602335032586E-11   -6.664175821825873E-12
3.5499999999999996E-5     -5.604651526595821E-11   2.726846556392672E-10    3.8423755151061993E-10   1.7325517571961445E-10   1.9851209391072077E-9    1.734661903528935E-9     1.1827683191741299E-9    5.338263630149069E-10    -6.351034095030544E-11   -3.326293489687314E-11   -1.1934360397530872E-11
3.6E-5                    -2.498717384698234E-10   1.7017448198889712E-10   3.73632529220934E-10     1.8928314612298445E-10   2.5250620680472452E-9    2.2311121757831883E-9    1.606515259161427E-9     8.447191337084653E-10    -7.036714815504664E-11   -4.03461353039373E-11    -1.71696802643672E-11
3.65E-5                   -4.730846198890346E-10   3.7663508415427124E-11   3.4442011056481506E-10   1.9885516632847095E-10   3.078873515774216E-9     2.743256929612555E-9     2.0575427973861485E-9    1.1896310752752934E-9    -7.557438687027552E-11   -4.783552796463709E-11   -2.2282089649412626E-11
3.7E-5                    -7.228159708248161E-10   -1.26358207769559E-10    2.9305062224068246E-10   2.0222179879572158E-10   3.6258065723719166E-9    3.2511162702265474E-9    2.5209420802417253E-9    1.5628217052939161E-9    -7.847136860917897E-11   -5.5027181649195195E-11  -2.7509518995310795E-11
3.75E-5                   -9.949643860272647E-10   -3.2272683954295895E-10  2.168220773111999E-10    2.0002177323533263E-10   4.138575220341266E-9     3.731977445438196E-9     2.978615750999143E-9     1.954948184407152E-9     -7.882775786548276E-11   -6.121547559718858E-11   -3.3256115574109754E-11
3.7999999999999995E-5     -1.2838010437031721E-9   -5.507968385879995E-10   1.150387753898089E-10    1.9156010752444866E-10   4.584846426920912E-9     4.1600442287518466E-9    3.409922707312427E-9     2.352684891344728E-9     -7.666471337359465E-11   -6.586164572396034E-11   -3.983603863026446E-11
3.85E-5                   -1.5823054263306142E-9   -8.081540305245402E-10   -1.1289302832965626E-11  1.7427852200527046E-10   4.929736340158859E-9     4.505275365867571E-9     3.791111949542639E-9     2.7391720062808514E-9    -7.185979329274467E-11   -6.85687263876805E-11    -4.7196590042203626E-11
3.9E-5                    -1.882018436449376E-9    -1.0903535374871952E-9   -1.6144177697909296E-10  1.446236225409017E-10    5.137748929757003E-9     4.733820341299426E-9     4.0950524371878E-9       3.0947379874058077E-9    -6.384111539562614E-11   -6.896545694226109E-11   -5.478798019732079E-11
3.95E-5                   -2.1720756944654082E-9   -1.3900679787692351E-9   -3.3686395420115017E-10  9.952576674625863E-11    5.174392085637486E-9     4.8111159413774525E-9    4.292827395791703E-9     3.397471298595764E-9     -5.1631379878241795E-11  -6.660052993269734E-11   -6.17097782273039E-11
3.9999999999999996E-5     -2.438635665856245E-9    -1.6963505240696176E-9   -5.406810042957227E-10   3.7604915437231333E-11   5.0083694875265204E-9    4.706174986258574E-9     4.356280287209581E-9     3.623929376071082E-9     -3.426446181810326E-11   -6.090057229323837E-11   -6.705082252081978E-11
4.0499999999999995E-5     -2.665537353362455E-9    -1.9952963274025676E-9   -7.746262459464818E-10   -4.042470673461885E-11   4.61380639315643E-9      4.394338698777285E-9     4.2593085455214144E-9    3.750328270008316E-9     -1.1308083038422193E-11  -5.121587223260064E-11   -7.016371931548983E-11
4.1E-5                    -2.8353217102874792E-9   -2.2721024351935808E-9   -1.0356606399709702E-9   -1.3232764237690866E-10  3.971148571731562E-9     3.8570418580595776E-9    3.97778696276962E-9      3.753860176035207E-9     1.689494840630435E-11    -3.695478535002816E-11   -7.068880720124827E-11
4.15E-5                   -2.92958398361619E-9     -2.512913285314802E-9    -1.3148928576324254E-9   -2.3561730343710324E-10  3.066774877092977E-9     3.0799908044676878E-9    3.490282767617886E-9     3.613519843702804E-9     4.9468891327729125E-11   -1.77727342847353E-11    -6.838239162149705E-11
4.2E-5                    -2.929332136887301E-9    -2.7048779103364647E-9   -1.599293929962141E-9    -3.4870129658068417E-10  1.8929265748048633E-9    2.0527910319472995E-9    2.7805711816097575E-9    3.310456405554681E-9     8.555094255605549E-11    6.269393667506077E-12    -6.293624757764943E-11
4.2499999999999996E-5     -2.8166684321013016E-9   -2.8345484276683546E-9   -1.8744659013144566E-9   -4.710321148878793E-10   4.491352028116961E-10    7.715281389359089E-10    1.8401896578880646E-9    2.828494380906106E-9     1.2470452176910655E-10   3.4697452283491426E-11   -5.389390167117496E-11
4.2999999999999995E-5     -2.577259400819962E-9    -2.886376826784533E-9    -2.1264917844992035E-9   -6.021333432417714E-10   -1.2551776525640366E-9   -7.573031179144537E-10   6.692013893439274E-10    2.155322618810433E-9     1.6687093407345126E-10   6.682108198670462E-11    -4.064120033709865E-11
4.35E-5                   -2.201430185802524E-9    -2.843013523349858E-9    -2.3423370129558676E-9   -7.402279849303552E-10   -3.197998995993318E-9    -2.514197616207272E-9    -7.240875538903879E-10   1.2842442599084258E-9    2.1190421389674418E-10   1.0200300695850581E-10   -2.244314582161536E-11
4.4E-5                    -1.6830638070101302E-9   -2.68740561609158E-9     -2.5095052513123924E-9   -8.813471702725898E-10   -5.342906106135538E-9    -4.466196816556684E-9    -2.322528794911019E-9    2.1591437963453974E-10   2.590399424256517E-10    1.3973338069402566E-10   1.4387367614572903E-12
4.45E-5                   -1.0181991466456802E-9   -2.405052670360178E-9    -2.6156370883710555E-9   -1.0193311684066852E-9   -7.638813103654158E-9    -6.5675841897584935E-9   -4.09843427093059E-9     -1.0405686883632683E-9   3.0665739221657005E-10   1.7938092084316846E-10   3.1531274340795716E-11
4.4999999999999996E-5     -2.0565091142973997E-10  -1.9849800417063835E-9   -2.648123591089202E-9    -1.1466333731097956E-9   -1.0021139505167883E-8   -8.760926663151236E-9    -6.012317936979601E-9    -2.4673890645198746E-9   3.5245730028987403E-10   2.198389729192239E-10    6.79115851421186E-11
4.5499999999999995E-5     7.503759127290537E-10    -1.4197541507672328E-9   -2.593653256282476E-9    -1.2554370475187626E-9   -1.2413133466606192E-8   -1.0978374255017843E-8   -8.013067432243014E-9    -4.037990435647066E-9    3.9389639863301403E-10   2.594525742947553E-10    1.1005196779886704E-10
4.6E-5                    1.83786637152647E-9      -7.059250230721826E-10   -2.438044903822833E-9    -1.3382808647922957E-9   -1.4726321030757496E-8   -1.3142642372264163E-8   -1.0038983786528323E-8   -5.7166040201807795E-9   4.2856533202972357E-10   2.963419176428465E-10    1.5677680680675936E-10
4.65E-5                   3.0366276563638394E-9    1.547078718198336E-10    -2.166991528491897E-9    -1.3876695066908085E-9   -1.686104596593767E-8    -1.5167029144166687E-8   -1.2018788804451944E-8   -7.457544159855042E-9    4.542661327589938E-10    3.2878703139636485E-10   2.0628915838062955E-10
4.7E-5                    4.319710449158605E-9     1.1540698580007133E-9    -1.767882973853488E-9    -1.3952435930080732E-9   -1.8709238226890403E-8   -1.6955698500041503E-8   -1.3872615280097188E-8   -9.20540305756093E-9     4.688249231574471E-10    3.552457410333967E-10    2.56261435945225E-10
4.7499999999999996E-5     5.65476121241778E-9      2.277741063628936E-9     -1.2320139845354916E-9   -1.351868195710042E-9    -2.015984735103735E-8    -1.8406794614928295E-8   -1.551375434623917E-8    -1.0896800155701109E-8   4.699502145079452E-10    3.740002663851643E-10    3.040663214468794E-10
4.8E-5                    7.003930540556308E-9     3.5049804316141376E-9    -5.561126497709289E-10   -1.2491747225220312E-9   -2.1104840833149414E-8   -1.9418782043567854E-8   -1.68517339022436E-8     -1.2462894198375472E-8   4.554127388251395E-10    3.828921266301598E-10    3.4719261305192016E-10
4.85E-5                   8.323001440721663E-9     4.8078808937931916E-9    2.572846356749624E-10    -1.08139052406183E-9     -2.1443772859231125E-8   -1.9896989859607127E-8   -1.7796402296328655E-8   -1.3831342477468146E-8   4.234544907273886E-10    3.795353295074178E-10    3.8370287865177065E-10