% Model:              Untitled.mph
% Version:            COMSOL 6.0.0.405
% Date:               Jul 15 2025, 18:20
% Dimension:          1
% Nodes:              401
% Expressions:        11
% Description:        Point graph
% Time (s)                Displacement field, Y component Displacement field, Y component Displacement field, Y component Displacement field, Y component Displacement field, Y component Displacement field, Y component Displacement field, Y component Displacement field, Y component Displacement field, Y component Displacement field, Y component Displacement field, Y component
0                         -1.2613247912379847E-32  9.216748518922259E-32    3.322503654925752E-32    9.001562869209783E-34    1.5909879578049155E-34   -4.669793627396702E-32   -1.1243087342325463E-31  -2.527285874342806E-31   -2.6295232206466516E-31  -7.096978750952924E-33   -2.6646556960809262E-33
5.0E-7                    1.0506863983327668E-24   5.229071776177298E-23    9.378662798484043E-23    -6.728862612306968E-25   -7.162690517450698E-27   4.8062144467306565E-24   1.9728969277547504E-23   1.6699663968082423E-22   6.657368315428492E-23    -8.0030871987813E-24     3.2599942048300134E-24
1.0E-6                    -7.274872803397673E-23   -1.106145027098726E-21   -3.2007944193077445E-22  2.9280730643269644E-24   -2.0380588881922136E-25  4.987687565695548E-23    3.9161082961475944E-22   -8.126486253557513E-22   -8.650522456822765E-22   1.219689678343325E-22    -2.63086408024196E-23
1.5E-6                    -5.948823820601254E-22   3.0757694755514984E-21   -5.93495682702225E-22    1.603527991327733E-23    1.1102802313781606E-24   -3.6420633735598105E-22  -1.9062373453670922E-21  -3.525140182433143E-21   -3.718801168166119E-22   2.8382291587583114E-22   8.381628093739544E-23
2.0E-6                    1.077164858194369E-22    2.035565042666563E-21    1.1525971449245304E-21   -1.0416938970929332E-22  -3.815391637725845E-24   4.357827294895232E-22    -4.963978955272685E-21   3.317326348335283E-20    2.754746261464665E-20    -3.117481015889349E-21   -2.5608442368106978E-23
2.4999999999999998E-6     9.239621690634257E-21    -1.565492270643037E-20   9.551525042496956E-21    -6.352187131885047E-23   1.1981491664043355E-23   -3.4415453859974974E-22  -6.372349962294129E-21   -2.2295438692005177E-20  -5.485012751464765E-20   -4.964386429498843E-21   -4.712065699454252E-22
3.0E-6                    1.2378519178073363E-20   -4.655366052717948E-21   -7.803720854088432E-21   8.92522467614887E-22     3.067476095161789E-24    7.349732978517964E-21    6.73755262147741E-20     -2.236013823755652E-19   -1.2952748775531713E-19  -4.290704919702193E-21   7.748897996487941E-22
3.5E-6                    -5.631547996721595E-20   7.380813135576011E-20    -6.953426364564881E-20   8.56538611680479E-22     -1.5523519526622742E-22  -2.6691287575750656E-21  1.2696986683215383E-19   1.5871178605832044E-19   3.4432003395022337E-19   5.1933344556742284E-20   1.1991561376188344E-21
4.0E-6                    -1.242153878403633E-19   4.8566840950912175E-20   2.431933324245974E-20    -5.684707469513831E-21   1.1377995671528692E-22   -7.261610409954495E-20   -3.3603102841726636E-19  1.0287817045290012E-18   2.6417941196271545E-19   2.303565789834038E-19    -2.5869624480566282E-21
4.5E-6                    2.0985061630965178E-19   -3.513747254445999E-19   3.474483529017903E-19    -9.515001561007111E-21   1.2744300380665486E-21   1.0107394836546013E-20   -9.080327737920138E-19   -2.5980040323360366E-19  -1.0629971352415977E-18  -2.761851958370461E-19   -5.052174899812156E-21
4.9999999999999996E-6     7.874055554342872E-19    -3.638074508666096E-19   1.012065261444499E-19    2.6323657913300434E-20   -9.02058611481197E-22    3.4056892922130235E-19   7.652354019257754E-19    -3.921189713169176E-18   1.5824667409632931E-19   -1.9974490450620516E-18  1.1901003517116348E-21
5.5E-6                    -2.9459255554849673E-19  1.4681023268250257E-18   -1.2801157049395554E-18  6.94196683757013E-20     -8.681057729638704E-21   1.93169841856754E-19     4.433760784076173E-18    -1.852070599465049E-18   6.108152667517427E-19    -2.6746596792282395E-19  2.657996237737309E-20
6.0E-6                    -3.376923351167745E-18   2.5247322117453377E-18   -1.4091046575201498E-18  -7.79028378409629E-20    3.1827550225200223E-21   -1.2674763076850061E-18  -5.789951904465656E-20   1.068099058039749E-17    -7.975967750211288E-18   8.791250181979065E-18    3.8333246806680494E-20
6.5E-6                    -9.783500256514554E-19   -3.4362521547057584E-18  3.1708534768192547E-18   -3.706714807518329E-19   4.971863276142547E-20    -2.5104796464093583E-18  -1.9282963045964142E-17  1.234197304114908E-17    4.39999399025785E-18     9.18162727484354E-18     -5.7826016417088E-20
7.0E-6                    1.3344851536252525E-17   -9.934057165661591E-18   7.908664394755712E-18    6.207236627718839E-20    5.9209339380527146E-21   2.7912866002888494E-18   -1.7131876546641093E-17  -2.4451667888844298E-17  5.332711112080932E-17    -2.1238036440981993E-17  -2.533875413596698E-19
7.499999999999999E-6      1.8638992252262346E-17   7.293078494006363E-18    -2.0561100245531273E-18  1.5642343345449364E-18   -2.3687987381408704E-19  1.0944431073553286E-17   5.2061078340768556E-17   -5.307305683707832E-17   -1.0596375351107196E-17  -5.625109144142495E-17   -3.334969366987065E-19
8.0E-6                    -2.364343823614719E-17   4.647122954464645E-17    -2.725575853580436E-17   9.463231119316276E-19    -1.6667743788801844E-19  -1.5259866364817487E-17  8.440943291946672E-17    2.8943669273970806E-17   -2.5778184173414566E-16  -2.3514522926663908E-17  4.484452118513257E-19
8.5E-6                    -8.258394736617753E-17   4.178360202072342E-17    -2.0261497367245492E-17  -5.3009103813642E-18     9.051242676328763E-19    -7.272014688862686E-17   -1.5201163936228948E-16  9.587303168726152E-17    -1.552131116292784E-16   8.939923761872753E-17    3.002193045289592E-18
9.0E-6                    -5.491102729974449E-18   -5.668620298786068E-17   6.807300775275996E-17    -7.919347097124771E-18   1.3152769662048024E-18   -2.468413893785417E-17   -5.202775601650495E-16   -2.7400512382184835E-16  6.896639355903258E-16    1.2871115845708065E-16   2.9646929358622774E-18
9.499999999999999E-6      2.9195571887764055E-16   -1.38690949289098E-16    1.3199586809480584E-16   1.305013180075909E-17    -2.4952545733809604E-18  8.004353542221775E-17    -2.5662765098684884E-16  -8.884657147560288E-16   7.21422035609595E-16     -2.0401623807240373E-16  -1.1743408939532808E-17
9.999999999999999E-6      5.060549582188908E-16    4.7754611483147275E-17   -6.820751330867502E-17   4.136001119713655E-17    -6.831576189682889E-18   -3.5281667968748885E-16  6.879243023888554E-16    -5.147300289049309E-16   -2.193935819018799E-15   -1.1093908335262E-15     -3.362967056471368E-17
1.05E-5                   2.0836838034460555E-16   6.345294601066708E-16    -4.008252389437471E-16   -5.34607705515522E-18    3.0261712089629537E-18   -1.522973955634633E-15   -4.200585470302237E-16   2.227012832756669E-16    -5.553736997366878E-15   -2.419263322394417E-15   -4.503673428921245E-18
1.1E-5                    8.570725136406177E-17    1.2395634878452124E-15   -8.297065475167238E-17   -1.4594461773684103E-16  2.5682993843652444E-17   -2.3223943224039785E-15  -7.067568478073312E-15   -3.572547562974695E-15   -3.0123702636401663E-15  -4.088594327096634E-15   1.0385014883763415E-16
1.15E-5                   2.59205553323454E-15     7.345888742507728E-16    1.0974121494202395E-15   -1.3274945930026629E-16  1.3824590848619437E-17   -3.2874584775729908E-15  -1.6111898161517626E-14  -1.4346699292193516E-14  2.935156248331602E-15    -7.633767363798775E-15   1.2044445205631897E-16
1.2E-5                    9.757327089789823E-15    -1.604512739090456E-15   1.3131852183875845E-15   3.265663072553456E-16    -6.621795040131025E-17   -1.0600937273329945E-14  -1.928653302247555E-14   -2.509906944966162E-14   -6.190379326462306E-15   -1.6824793305352557E-14  -2.2440988562896423E-16
1.2499999999999999E-5     2.0632310437599837E-14   -2.6078946445131764E-15  -1.1298147492106431E-15  7.865360452264774E-16    -1.0519383548575313E-16  -3.225418680153164E-14   -2.7846155568727604E-14  -3.609902913984012E-14   -4.5663348474372154E-14  -3.731240693786849E-14   -7.700595809721712E-16
1.3E-5                    3.58386268023257E-14     5.8270877034905835E-15   -2.9664174987246934E-15  3.3719505951585462E-18   8.539477503905417E-17    -7.068461784401353E-14   -9.099099505919803E-14   -8.013122352084041E-14   -1.0217276047287131E-13  -7.928949276764428E-14   -7.323914629617494E-16
1.35E-5                   6.774613508176677E-14    2.658757430170435E-14    2.090394715530238E-15    -2.0396661009033627E-15  3.804621735796051E-16    -1.3201334698201917E-13  -2.562958736840048E-13   -2.007672722113061E-13   -1.5140345665215762E-13  -1.6289415814883023E-13  2.909123459624865E-16
1.4E-5                    1.374132771907852E-13    4.3700739512120073E-14   1.165154775510289E-14    -2.1652006716827547E-15  1.7887680033920607E-16   -2.5744960818349626E-13  -5.160354066086194E-13   -4.054902121765675E-13   -2.1929978640696835E-13  -3.124942945969554E-13   1.008326296338587E-15
1.45E-5                   2.525108204260201E-13    3.556382573208649E-14    1.1669894240099172E-14   2.962427466155578E-15    -7.66590638197471E-16    -5.492229918545688E-13   -8.785623945193565E-13   -7.139972867231058E-13   -4.1408475340689497E-13  -5.338465041255743E-13   -1.1110777159986882E-15
1.4999999999999999E-5     4.0827490742788216E-13   1.7883562494856284E-14   -5.275174701701168E-16   9.635477934612344E-15    -1.231908196280535E-15   -1.1526548665479072E-12  -1.549643818295161E-12   -1.2925807343808166E-12  -8.714657985766393E-13   -8.073807121312983E-13   -7.67818128533005E-15
1.55E-5                   6.418306558454399E-13    5.351714593336747E-14    5.339633543435416E-15    6.914625063821686E-15    5.743688703902527E-16    -2.203762788988365E-12   -2.961749050458782E-12   -2.4503043559418628E-12  -1.64691492822136E-12    -1.1294021346851014E-12  -1.8189643155094526E-14
1.6E-5                    1.046989658125363E-12    1.922145938794913E-13    5.949913360973057E-14    -8.801418442375075E-15   3.691686148709334E-15    -3.860792229046698E-12   -5.556276166707594E-12   -4.4474054367155615E-12  -2.644418064385814E-12   -1.540629043711417E-12   -3.048181724127807E-14
1.6499999999999998E-5     1.6209955882526586E-12   4.3249116935315474E-13   1.251255391271907E-13    -1.875573822024997E-14   3.273826608948879E-15    -6.539660944999617E-12   -9.672726237253025E-12   -7.472534409609236E-12   -3.69673960302175E-12    -2.055409538392753E-12   -4.086628526999091E-14
1.7E-5                    2.0874308629528695E-12   7.796994534290725E-13    1.2110576775830817E-13   7.040970765566598E-15    -3.4719548306260036E-15  -1.113406111015003E-11   -1.5763806542248233E-11  -1.1945002794990238E-11  -4.92813706207662E-12    -2.6267564321634503E-12  -4.866378477136502E-14
1.75E-5                   2.113328796389248E-12    1.2438964549150756E-12   8.67647947673483E-14     7.150803194746983E-14    -9.182265960174139E-15   -1.8659568832770133E-11  -2.44236158999899E-11    -1.855778427025186E-11   -7.281275789121196E-12   -3.4477843287873104E-12  -7.656410552593358E-14
1.8E-5                    1.980583141096237E-12    1.6490663039494831E-12   2.799797945531732E-13    1.2679177520457844E-13   -7.75222169237021E-17    -2.927103214069857E-11   -3.569884603553557E-11   -2.755337820559277E-11   -1.250050898732237E-11   -5.429761812481982E-12   -1.9334836335866095E-13
1.85E-5                   2.956352554244191E-12    1.6132725281961222E-12   9.207845243968396E-13    1.1206923246154763E-13   2.5084207169753245E-14   -4.173182009263116E-11   -4.825829869573508E-11   -3.79216888387666E-11    -2.1815247489829758E-11  -9.989695429647203E-12   -4.791186933803529E-13
1.8999999999999998E-5     6.545340819862411E-12    1.1363999570100763E-12   1.7131595247013202E-12   4.297309059430196E-14    4.3490365099791804E-14   -5.4316218733750324E-11  -5.956622446102838E-11   -4.764372926541477E-11   -3.395176109360316E-11   -1.771110399795784E-11   -9.009859790387051E-13
1.95E-5                   1.30341844484511E-11     1.247779788005664E-12    1.8115707505064922E-12   6.480259749240563E-14    3.0736927662013726E-14   -6.616453268829657E-11   -6.713207178691401E-11   -5.472443530554854E-11   -4.467113328844054E-11   -2.7082371866494462E-11  -1.219145867594714E-12
1.9999999999999998E-5     2.084660863825656E-11    3.4604577648455436E-12   6.857341880701334E-13    3.6758494173246207E-13   3.2193735646538414E-15   -7.697298232201785E-11   -6.967162581521784E-11   -5.7662539967661617E-11  -4.916645298437089E-11   -3.5029522614433374E-11  -1.1397064244969875E-12
2.05E-5                   2.7546731710521965E-11   8.073561549689911E-12    -7.566861293227062E-13   9.767529911977291E-13    2.550899424663E-14       -8.505477146230671E-11   -6.725692549259735E-11   -5.515075233654105E-11   -4.550035618491659E-11   -3.895537997064657E-11   -7.207331923720755E-13
2.1E-5                    3.1480552630225903E-11   1.3369705478072795E-11   -2.125912628761817E-13   1.6184399748787002E-12   1.5479794298790193E-13   -8.67317725668313E-11    -6.052695678754473E-11   -4.626701911546315E-11   -3.5704280847071346E-11  -3.804739210240224E-11   -6.529633791696414E-13
2.1499999999999997E-5     3.236048529786609E-11    1.7237394139849906E-11   4.209188664012389E-12    1.8921096666943973E-12   3.7474271001347163E-13   -7.887310983928752E-11   -4.9479976335669756E-11  -3.145400556539849E-11   -2.3558905869240797E-11  -3.2723035817632905E-11  -1.9945550692135387E-12
2.2E-5                    3.0436165865526634E-11   1.9677092186005925E-11   1.1802004332432326E-11   1.7118684615144486E-12   6.00510440299644E-13     -6.176667894800843E-11   -3.2542563907501315E-11  -1.2666548100669857E-11  -1.1504273030782218E-11  -2.35824208820076E-11    -5.4357222372197036E-12
2.2499999999999998E-5     2.5504849666367005E-11   2.305731587722801E-11    1.905216583984334E-11    1.6262765396745452E-12   7.631248744279525E-13    -3.8001565185682935E-11  -6.783058984410893E-12   8.320107782237271E-12    5.385105607836543E-13    -1.1346444828390925E-11  -1.0668040096390769E-11
2.3E-5                    1.6989892497286958E-11   2.9301771678884706E-11   2.216877461233464E-11    2.6445939673273336E-12   8.929426220437597E-13    -7.915681413537932E-12   3.057151944369544E-11    3.189410781081465E-11    1.4144414751025074E-11   2.7080096570086344E-12   -1.6353056490613016E-11
2.35E-5                   4.961737333447587E-12    3.6722165531845164E-11   2.0234272712857636E-11   5.6443046890334935E-12   1.1325780019355096E-12   3.270365894592451E-11    8.052146793680764E-11    6.070285428041618E-11    3.0802866921420976E-11   1.6983927353306615E-11   -2.0693082304724908E-11
2.4E-5                    -9.061244507777763E-12   3.994021946321603E-11    1.584856132356826E-11    1.0796621656538327E-11   1.697068730214389E-12    8.921656488584627E-11    1.4192035837816472E-10   9.783603857305029E-11    5.1187834072419995E-11   3.052820586933732E-11    -2.2257792668157774E-11
2.45E-5                   -2.2628228582561167E-11  3.3615124698251214E-11   1.247514303369494E-11    1.7330141234419183E-11   2.8416735623702897E-12   1.6276639066064534E-10   2.123079170877595E-10    1.4492775261549378E-10   7.54819099882295E-11     4.40727976816009E-11     -2.064047153113165E-11
2.4999999999999998E-5     -3.437296332177608E-11   1.7011339976373718E-11   1.1067750949996217E-11   2.3647968953203776E-11   4.842327940277064E-12    2.4911618742000113E-10   2.8910184412288385E-10   2.016021526716366E-10    1.0421875907648129E-10   6.050874219313077E-11    -1.654438996401885E-11
2.55E-5                   -4.6246910052821765E-11  -4.9890143155944395E-12  9.267133704378582E-12    2.7765493261266774E-11   7.918811524787919E-12    3.4249336489845176E-10   3.7068051271291294E-10   2.6621126083064896E-10   1.3896918426725862E-10   8.3892449438633E-11      -1.1151106590830949E-11
2.6E-5                    -6.35236794147628E-11    -2.6033075544178276E-11  3.7648885938494304E-12   2.8077926567065626E-11   1.204745935944467E-11    4.397618002364455E-10    4.5692450202875625E-10   3.368388972340442E-10    1.8207384710890683E-10   1.1666608675214023E-10   -5.176222559782823E-12
2.65E-5                   -9.129009707403247E-11   -4.393057750341056E-11   -6.649814396897228E-12   2.4181314961199078E-11   1.6739656406234028E-11   5.410980475373044E-10    5.484141879732824E-10    4.115012182248475E-10    2.3475028915256627E-10   1.5710390751370632E-10   1.6503034451774854E-12
2.7E-5                    -1.2989071088480104E-10  -6.201009253005766E-11   -2.020839973155712E-11   1.7099514837289666E-11   2.0993503865743814E-11   6.476208472975437E-10    6.442727762633595E-10    4.873981395980266E-10    2.9439283418151643E-10   2.000931244834434E-10    1.0340287145340468E-11
2.7499999999999998E-5     -1.7402065870936095E-10  -8.496395535516062E-11   -3.40200338360697E-11    8.501943295015408E-12    2.3593703392848537E-11   7.583963100635355E-10    7.400093928228357E-10    5.602484192176399E-10    3.540181977699089E-10    2.412429165518837E-10    2.199464099434171E-11
2.8E-5                    -2.1682923011261606E-10  -1.1425179126028614E-10  -4.6799114588847404E-11  -6.616563578853756E-13   2.368736295900186E-11    8.684780337072663E-10    8.266282945973853E-10    6.246404155347434E-10    4.060187151707749E-10    2.8010258672405035E-10   3.7270720909213497E-11
2.8499999999999998E-5     -2.5466975528511665E-10  -1.481135171329717E-10   -6.001282713798631E-11   -1.1093794001837617E-11  2.1266169203500073E-11   9.686816810810445E-10    8.914236566132417E-10    6.748959021979406E-10    4.4754989812513195E-10   3.188765883990451E-10    5.6163232253447126E-11
2.9E-5                    -2.876002448073681E-10   -1.8488778003701365E-10  -7.649042433669402E-11   -2.4912816895852648E-11  1.7112262933984118E-11   1.0471991307937895E-9    9.209779409109732E-10    7.053070431288797E-10    4.815359049706952E-10    3.582211953797025E-10    7.804528993558526E-11
2.95E-5                   -3.1632657004143116E-10  -2.2437031574143727E-10  -9.779290732230776E-11   -4.4349799137222854E-11  1.2069648980188098E-11   1.092310779735258E-9     9.061488995402785E-10    7.097770345594765E-10    5.110602850271139E-10    3.947964721349779E-10    1.0186389647640578E-10
2.9999999999999997E-5     -3.4017057760584284E-10  -2.65529584460643E-10    -1.2271362652694297E-10  -7.020819251721834E-11   6.060167346795689E-12    1.0947455443953869E-9    8.455733637762048E-10    6.819411012316832E-10    5.323529177354427E-10    4.2254509289757284E-10   1.262843504637539E-10
3.05E-5                   -3.578560156256054E-10   -3.0437624889847256E-10  -1.4809447214040217E-10  -1.011331669016384E-10   -2.3411252388082857E-12  1.0483111532510446E-9    7.428583289094383E-10    6.161029224042764E-10    5.33660072608658E-10     4.353890162191754E-10    1.4964011570413034E-10
3.1E-5                    -3.684297646313148E-10   -3.353600904718833E-10   -1.70868074133674E-10    -1.3427838381723617E-10  -1.5209010800559613E-11  9.48305486247194E-10     5.980904267807618E-10    5.080814429317407E-10    5.014269556873348E-10    4.285759245626254E-10    1.6996910979235895E-10
3.15E-5                   -3.7001898542448346E-10  -3.5456971112321294E-10  -1.89313450628471E-10    -1.6692664693444503E-10  -3.38387395779036E-11    7.886719432027424E-10    4.016809970032876E-10    3.5519771801600813E-10   4.282190590958063E-10    3.9859758108827254E-10   1.8557005255064014E-10
3.2E-5                    -3.578551442944613E-10   -3.6079073811045033E-10  -2.0276716796851302E-10  -1.977328836359059E-10   -5.7853759524865283E-11  5.601176540586177E-10    1.3766097381421283E-10   1.5566069181358947E-10   3.157891950060835E-10    3.431912180397177E-10    1.9581579944064582E-10
3.25E-5                   -3.2437134210726976E-10  -3.5370465659185E-10     -2.1067910533604544E-10  -2.2645872392720069E-10  -8.585377243863294E-11   2.511969038756221E-10    -2.0607842611495994E-10  -9.201057120411208E-11   1.7155388203131098E-10   2.6193586404233326E-10   2.0122882969846002E-10
3.2999999999999996E-5     -2.620171364055182E-10   -3.319991065769418E-10   -2.120154510600534E-10   -2.5238961702576556E-10  -1.170921564965817E-10   -1.4772255922129932E-10  -6.301688607612252E-10   -3.8922346536351476E-10  2.0040903692041595E-12   1.5633275922114197E-10   2.0231192476525717E-10
3.35E-5                   -1.6685009897307145E-10  -2.9338093631159045E-10  -2.0499301961834532E-10  -2.728728343779543E-10   -1.523353966852127E-10   -6.40139975324395E-10    -1.1248430777854372E-9   -7.370046539859932E-10   -1.920083102420875E-10   2.8169495215851932E-11   1.9796625753887192E-10
3.4E-5                    -4.012099872031284E-11   -2.3548615795252314E-10  -1.867680224763833E-10   -2.8337577215934686E-10  -1.9255193360169502E-10  -1.2216936572613614E-9   -1.6766663645826899E-9   -1.1347653508671779E-9   -4.153114514336781E-10   -1.2312661946486264E-10  1.8485526103574823E-10
3.45E-5                   1.1363853852020506E-10   -1.5589681712382448E-10  -1.5345136772928228E-10  -2.7917953450642475E-10  -2.36276087318891E-10    -1.881544550057635E-9    -2.273380984285511E-9    -1.5780634940972812E-9   -6.741673017468267E-10   -3.013846822594438E-10   1.5819455608880316E-10
3.5E-5                    2.904827980712212E-10    -5.136737670387401E-11   -1.0124207779424927E-10  -2.574563517475602E-10   -2.7821908857598963E-10  -2.6045460466319166E-9   -2.9028357556168403E-9   -2.0562725601515976E-9   -9.707149961661148E-10   -5.109566567804257E-10   1.1332800778529494E-10
3.5499999999999996E-5     4.891216108183371E-10    8.213810472347913E-11    -2.8461377845301844E-11  -2.1816478023874117E-10  -3.1091998524263713E-10  -3.3719857856024098E-9   -3.548325536039032E-9    -2.5518626385630736E-9   -1.2999406934100408E-9   -7.523773781065035E-10   4.718091408119244E-11
3.6E-5                    7.092756575169034E-10    2.477979293856174E-10    6.315405938290178E-11    -1.6311272824684348E-10  -3.2842585741185556E-10  -4.161303924472994E-9    -4.1853196671216875E-9   -3.0424440091234797E-9   -1.650887095340721E-9    -1.0206127692838285E-9   -4.094963154949476E-11
3.65E-5                   9.48668413600778E-10     4.457821730584879E-10    1.694184911224747E-10    -9.386923580929194E-11   -3.289067001194081E-10   -4.946197659286099E-9    -4.782035296561666E-9    -3.5046127500090076E-9   -2.0099763164808443E-9   -1.3070625811770643E-9   -1.494418598182615E-10
3.7E-5                    1.202022722822264E-9     6.72411803685445E-10     2.864477642512471E-10    -9.904157538281247E-12   -3.1392090233066225E-10  -5.696566218442553E-9    -5.30236974733238E-9     -3.916632595726026E-9    -2.3629175592844646E-9   -1.6020061427520916E-9   -2.7513119620341426E-10
3.75E-5                   1.461978459995378E-9     9.210823952292805E-10    4.1280978864489673E-10   9.195811164672015E-11    -2.8503513345796537E-10  -6.37667851189994E-9     -5.708509184081157E-9    -4.2575313721121825E-9   -2.694274750008225E-9    -1.8943719275317957E-9   -4.144216260970895E-10
3.7999999999999995E-5     1.7194238699578232E-9    1.1834877457067293E-9    5.489720777429309E-10    2.1648424551294473E-10   -2.4081177529627704E-10  -6.942348765476816E-9    -5.962251457430154E-9    -4.503456500387182E-9    -2.9866414628669445E-9   -2.1700189973942285E-9   -5.641656781520788E-10
3.85E-5                   1.9626648897870188E-9    1.4496034567720101E-9    6.943188063261302E-10    3.678119538725793E-10    -1.767163534908439E-10   -7.340548571034878E-9    -6.025719125870786E-9    -4.624939095570088E-9    -3.2210454314537913E-9   -2.41188770612156E-9     -7.218489519029277E-10
3.9E-5                    2.1772700226889735E-9    1.7070022807515714E-9    8.442233388109464E-10    5.470114020851111E-10    -8.78395382062616E-11    -7.513677499711678E-9    -5.862004846049654E-9    -4.588015687937098E-9    -3.378150271013843E-9    -2.6027429430154463E-9   -8.848214875866158E-10
3.95E-5                   2.3474029324079546E-9    1.9415981690125464E-9    9.89592835254577E-10     7.50629551845949E-10     2.806386321672092E-11    -7.406725423181139E-9    -5.435801677837174E-9    -4.358830339338053E-9    -3.4390482929801573E-9   -2.7279451535053838E-9   -1.0487019643929767E-9
3.9999999999999996E-5     2.457314162005042E-9     2.1402898540177885E-9    1.1191097076949198E-9    9.710494432144382E-10    1.6978468712184374E-10   -6.973228994520517E-9    -4.71464974728448E-9     -3.908873160300209E-9    -3.3852226725843717E-9   -2.775953546588597E-9    -1.2058043276964465E-9
4.0499999999999995E-5     2.4920486291662174E-9    2.292824013601113E-9     1.2223036641955237E-9    1.1983627574937063E-9    3.3448427047185087E-10   -6.177525890451647E-9    -3.6718610847746098E-9   -3.218252356759882E-9    -3.198269476340824E-9    -2.7368147522211798E-9   -1.3449209603753813E-9
4.1E-5                    2.4380268016955138E-9    2.389902834745574E-9     1.2914324280912394E-9    1.4223149854278097E-9    5.201066499288516E-10    -4.994325161745399E-9    -2.290862897239759E-9    -2.2763239844876895E-9   -2.8604081931448187E-9   -2.600217949176373E-9    -1.453027415185486E-9
4.15E-5                   2.283841624397991E-9     2.418421125829253E-9     1.3214733560132226E-9    1.632838764141535E-9     7.259844920447695E-10    -3.4081941632383963E-9   -5.689449243710428E-10   -1.0808342661103656E-9   -2.356278379093927E-9    -2.3543552522808917E-9   -1.5177255711126032E-9
4.2E-5                    2.0202674784980774E-9    2.3586066805083472E-9    1.3086231924160365E-9    1.818904726027077E-9     9.511065096053534E-10    -1.414035791916349E-9    1.4811478040597618E-9    3.6257136936206924E-10   -1.6752921393723251E-9   -1.9863765724487108E-9   -1.5284297048405503E-9
4.2499999999999996E-5     1.6391590480331157E-9    2.186973021193495E-9     1.2480292477334187E-9    1.9668508275258973E-9    1.1915788400040686E-9    9.819120263170467E-10    3.830990580435406E-9     2.0393442495650447E-9    -8.13241486066841E-10    -1.484658455048972E-9    -1.4756264828876526E-9
4.2999999999999995E-5     1.133076217490322E-9     1.8838044350826792E-9    1.1318352125922656E-9    2.059821726918467E-9     1.4391279469300128E-9    3.759975680311111E-9     6.435773180746952E-9     3.923958383919403E-9     2.2729290850654762E-10   -8.418277245448929E-10   -1.3496070050618415E-9
4.35E-5                   4.974254271233003E-10    1.439613050857604E-9     9.49079012720431E-10     2.0791540286982797E-9    1.6812771097841724E-9    6.88227677512294E-9      9.23290743022983E-9      5.978149886051794E-9     1.436965183856008E-9     -5.6801916004551466E-11  -1.140506618570118E-9
4.4E-5                    -2.660339061058932E-10   8.558738776254915E-10    6.883305571082403E-10    2.0071178559692444E-9    1.9027184898926517E-9    1.0286412300042149E-8    1.214176068788622E-8     8.150346096304881E-9     2.799014065021973E-9     8.647348649800122E-10    -8.399750335446996E-10
4.45E-5                   -1.1473412346240695E-9   1.403787536393091E-10    3.4196447112264367E-10   1.8294274688917685E-9    2.087153092896839E-9     1.3882267910636933E-8    1.5065904138405256E-8    1.0376016447637449E-8    4.2875076106874716E-9    1.9104637530582505E-9    -4.43262433291686E-10
4.4999999999999996E-5     -2.1292961847896893E-9   -6.980030432830012E-10   -9.049266199340689E-11   1.5361507938980608E-9    2.218893642103388E-9     1.7555107013894062E-8    1.789676347634361E-8     1.257839584114124E-8     5.86540408264059E-9      3.0612260864032147E-9    4.949995260050146E-11
4.5499999999999995E-5     -3.18957251817952E-9     -1.6503366950874305E-9   -6.017025244031284E-10   1.1209340770972323E-9    2.283480323718908E-9     2.1172261856082968E-8    2.0516102150710586E-8    1.4669790251941802E-8    7.484557806132615E-9     4.2906005517917016E-9    6.330168868422426E-10
4.6E-5                    -4.302264351685208E-9    -2.703629961572554E-9    -1.1781342359976864E-9   5.797305204566028E-10    2.267012867672389E-9     2.45881496919855E-8      2.2796570104340454E-8    1.6554161056533906E-8    9.089149477430303E-9     5.5649930314381125E-9    1.2970753135625888E-9
4.65E-5                   -5.438632938208134E-9    -3.835387062044273E-9    -1.8023287981636261E-9   -8.952977267275006E-11   2.1550041281434304E-9    2.7646123466110364E-8    2.460286050653737E-8     1.8131015774119812E-8    1.062103189220694E-8     6.844832780821068E-9     2.0269918134792555E-9
4.7E-5                    -6.566792433839391E-9    -5.011194175168767E-9    -2.4546498483234963E-9   -8.856365037581325E-10   1.932235284586839E-9     3.01803585828167E-8      2.579655726829935E-8     1.929966261279838E-8     1.2023030823540976E-8    8.086834449304405E-9     2.8041616486903726E-9
4.7499999999999996E-5     -7.64960185312481E-9     -6.1870131676981904E-9   -3.1142269224730225E-9   -1.801453442900609E-9    1.584380740542658E-9     3.2020861246040524E-8    2.6244343167404958E-8    1.9962986898888573E-8    1.3237776222185031E-8    9.246306178818221E-9     3.6063986385781555E-9
4.8E-5                    -8.641943915243356E-9    -7.314174451209733E-9    -3.758959530014165E-9    -2.8209569421973653E-9   1.100700018164285E-9     3.300118435199771E-8     2.5826233572839416E-8    2.0030931021891067E-8    1.4204234274258E-8       1.0278073142335651E-8    4.407576724288946E-9
4.85E-5                   -9.49094498559951E-9     -8.343552896651665E-9    -4.364436598492992E-9    -3.917401636297922E-9    4.763665152199095E-10    3.296648913323574E-8     2.4441948043360806E-8    1.9424349258887684E-8    1.4856801215738292E-8    1.1135749557748072E-8    5.1766260228513364E-9