% Model:              Untitled.mph
% Version:            COMSOL 6.0.0.405
% Date:               Jul 17 2025, 07:43
% Dimension:          1
% Nodes:              401
% Expressions:        11
% Description:        Point graph
% Time (s)                Displacement field, Y component Displacement field, Y component Displacement field, Y component Displacement field, Y component Displacement field, Y component Displacement field, Y component Displacement field, Y component Displacement field, Y component Displacement field, Y component Displacement field, Y component Displacement field, Y component
0                         -3.5041932360408724E-31  -1.6368597742865556E-31  -3.0914940041444296E-31  -1.1362335212180698E-31  -1.820129956905988E-32   -1.704321769976533E-34   -6.489028231350173E-34   -5.318868657343503E-35   -2.3574626855407616E-36  -9.333501671590514E-38   -4.1700743410512726E-33
5.0E-7                    5.044618932128909E-23    2.4730822177628022E-23   2.878080615589879E-23    -2.7942607524703956E-24  8.87866807469496E-25     -2.906486921532846E-26   5.040188889903601E-26    5.876746665697722E-27    2.945895016466078E-28    1.265708999827344E-29    6.79797682488671E-25
1.0E-6                    -3.7840360315673E-23     -2.1358092788945886E-23  2.4017231217006916E-22   1.127334120448597E-22    1.0558388243791853E-23   5.894391405101932E-25    4.111514125050272E-25    1.4259415833696977E-26   2.3690016229742083E-28   -6.15378649337663E-30    -1.678666473539161E-24
1.5E-6                    -3.18829449017628E-22    -2.9093893089926484E-22  -2.180478753613509E-21   -3.254103350787462E-22   -4.857658705680556E-23   -2.7097606874255564E-24  -2.793917711127626E-24   -1.4019838404156294E-25  -4.406752555095058E-27   -6.347899312963308E-29   5.292878922951779E-24
2.0E-6                    1.9386948997454847E-21   2.1182538990785433E-21   6.587419196447416E-21    8.160939949495684E-24    3.6489809395914506E-23   4.278100680904481E-24    8.400479672594998E-24    4.94816727968889E-25     1.8909340276067758E-26   3.054577920177197E-28    -1.2038459369821953E-23
2.4999999999999998E-6     -5.887325260043428E-21   -6.907985921606857E-21   -2.6410618274194512E-21  -3.0489363731849076E-22  1.7322852887712857E-22   8.95164784766164E-24     -9.556791492584349E-24   -8.240213431299861E-25   -4.2072390642147344E-26  -7.991735502518841E-28   8.771746468657674E-24
3.0E-6                    1.1632156284877351E-20   6.664354978690648E-21    -1.580736382548355E-20   8.224282846741743E-21    1.253063678210667E-21    -3.6816001733384944E-23  -1.2181226591801001E-23  -4.913189879105182E-26   2.286111872585428E-26    1.2005994910132446E-27   3.919303790466629E-23
3.5E-6                    -1.3012613774254477E-20  1.9986180833602883E-20   -7.21292222759863E-21    -6.84468570490597E-21    -6.664572461313522E-21   -3.376088816144826E-23   3.5469314824066163E-23   2.361319985865208E-24    1.3651250874604925E-25   -3.118104307329267E-29   -1.3007444151240811E-22
4.0E-6                    -3.973228838041484E-20   -6.295172762754012E-20   5.809935130662526E-22    -4.101907078022616E-20   -7.638794627255032E-21   2.4386481490201603E-22   -3.5733744881222796E-23  -2.6698553032509193E-24  -3.0180580658398837E-25  -4.409098240550535E-27   1.0661533242934503E-22
4.5E-6                    1.6327686987324346E-19   9.0716135506547E-21      1.730627389404742E-19    5.0873186749487776E-20   6.091860846012642E-20    1.745389782912689E-22    6.324659247341803E-23    -1.3309091099396509E-25  -2.801797936840893E-25   5.5747268214881256E-27   1.5323433960977298E-22
4.9999999999999996E-6     -3.335318688862448E-20   1.6508214432987879E-19   1.2469850116323952E-19   6.507768557104311E-20    5.0577898088444306E-20   -1.4147537754157132E-21  6.59704585293567E-22     8.902809248999356E-24    1.4839120160745603E-24   1.5806541654612907E-26   -1.2580711640619862E-21
5.5E-6                    -7.684432756634236E-19   -3.6792755065181385E-19  -5.089125765384454E-19   -5.264861067875318E-19   -3.4420493080319965E-19  -7.921406490991337E-22   -1.4309537348272293E-21  -2.844308291366254E-23   7.192127333631861E-25    -2.8382194987684906E-26  6.111297013847438E-22
6.0E-6                    1.285745555584601E-19    -4.6693302191583E-19     -4.449710720033531E-19   -3.9931454475570357E-19  -4.189515556664161E-19   6.501067263659822E-21    -7.327494319043048E-21   -5.589678207663796E-23   -6.281470737977772E-24   -1.0071157368675763E-25  1.8123606386364195E-20
6.5E-6                    2.2268955027392767E-18   1.9185660449385303E-18   -1.2099708911623346E-18  4.262915091568011E-18    1.3490560020196208E-18   2.1882388296734595E-21   9.882583401693908E-21    2.14042678964966E-22     -3.2426281369371304E-25  1.491017373017755E-25    2.4889382744407516E-20
7.0E-6                    -2.1770257096666356E-18  1.2359441937373487E-18   -5.213545715517801E-18   6.8085339840304046E-18   2.6782630673975997E-18   -2.7826226393938133E-20  5.59978590098966E-20     3.228592829903781E-22    1.6181158659555875E-23   5.726716770265454E-25    -1.0582489527895408E-19
7.499999999999999E-6      -1.0601306937322547E-17  -1.1800891490956938E-17  6.084081144827588E-18    -2.1668070539804364E-17  -3.222997750335867E-18   -9.4811500645817E-21     -3.1815859694301863E-20  -8.346012308066274E-22   -2.3884214975147657E-23  -1.40947531793641E-25    -2.768884434779906E-19
8.0E-6                    4.554149759572042E-18    -2.016060239615854E-17   5.0985719634938226E-17   -6.890025749835376E-17   -1.253793967846945E-17   9.897662619295082E-20    -3.197713880055183E-19   -1.1051314216264102E-21  -7.24896780546104E-24    -2.9692442087873852E-24  3.970477568300084E-19
8.5E-6                    1.649625032367497E-17    1.8322839829736827E-17   3.277285049650374E-17    1.275664580017198E-17    -1.6109874848849953E-18  2.1192614337973832E-20   -6.557600137694356E-20   9.851077895997513E-22    2.8178891565236305E-22   -5.694509688507409E-24   2.5918548928994445E-18
9.0E-6                    -8.968277969380691E-17   6.34135936467612E-17     -2.181788015181522E-16   2.9572043203973523E-16   3.608227550768616E-17    -4.48134679107431E-19    1.3421874383464924E-18   -1.9782691017499467E-21  -4.044893424307698E-23   1.0681854353976762E-23   3.0691981338724297E-18
9.499999999999999E-6      -2.202994778998149E-16   -8.347639439037418E-17   -4.3527813431626786E-16  2.7337617989458133E-16   4.002960387632209E-17    -5.509373090851606E-19   1.3374738443294442E-18   3.0214131981132043E-21   -2.0850758927619425E-21  6.16337252758915E-23     -5.576709039729135E-18
9.999999999999999E-6      -6.225165210809144E-17   -4.875203208653705E-16   2.754538538836463E-16    -7.850851070608158E-16   -6.880749949288795E-17   4.68150173782029E-19     -3.900950297902553E-18   4.8642659087151384E-20   -1.3169814774102603E-21  4.863927375879669E-24    -1.5781282507442876E-17
1.05E-5                   -2.4152211746307717E-17  -6.212787103390936E-16   1.784025629680199E-15    -2.008683956622751E-15   -2.2122783225195227E-16  7.842424464286874E-19    -8.360760565227213E-18   1.2366738406199632E-20   9.723167203884945E-21    -3.858002633674384E-22   2.055267545883011E-17
1.1E-5                    -1.2705308568669405E-15  7.982766340724973E-17    1.125100573155337E-15    -5.488722426765248E-16   -1.4570922737978494E-16  -3.1139326513444777E-18  4.6418289480526195E-18   -3.3590342339401626E-19  1.4768973954754456E-20   -4.434007908860513E-22   1.3825700144267545E-16
1.15E-5                   -3.6878023835011036E-15  3.3062268396284236E-16   -3.999446842620887E-15   3.8935818375190326E-15   2.4540098073611927E-16   -1.3132890615659769E-17  3.0182478113868453E-17   -4.454979968042161E-19   -2.887750456380604E-20   1.510097680802609E-21    2.2505816895647753E-16
1.2E-5                    -6.028190309585702E-15   -3.224061546425876E-15   -7.967706410808459E-15   4.422077877149541E-15    2.424126351308861E-16    -3.1904492042121646E-17  1.5859311771636253E-17   1.1234020489476198E-18   -9.021333839738642E-20   3.5517397237581654E-21   1.212822221367546E-16
1.2499999999999999E-5     -9.964951519530155E-15   -1.1420928498314044E-14  -9.683066251136687E-16   -7.058665592855852E-15   -1.4243619609777156E-15  -6.217099886243174E-17   -7.10708474304932E-17    3.0446259316931074E-18   8.166222060689293E-21    -3.3164676561034256E-21  1.4660425040700512E-16
1.3E-5                    -2.1720176402830746E-14  -1.8150129123541764E-14  1.1757659409130832E-14   -2.5746769655366725E-14  -5.019006906033765E-15   -1.0035615517586439E-16  -1.2450149128646074E-16  -1.4605587296183187E-18  2.9988788522371204E-19   -1.892291278278884E-20   1.328017177468579E-15
1.35E-5                   -5.123118558807183E-14   -1.7894701753060178E-14  4.488856280789868E-15    -3.350147793996674E-14   -8.971458573211173E-15   -1.9646329591004065E-16  3.080816716462805E-17    -1.3511870210715923E-17  2.4387333794063226E-19   -8.827390416671621E-21   4.503956044827028E-15
1.4E-5                    -1.143192180604457E-13   -2.4583922970225744E-14  -3.71593252090724E-14    -2.319589741994139E-14   -1.278632474726978E-14   -6.123322573826198E-16   2.992386582909545E-16    -1.1564103701647103E-17  -7.203360393867594E-19   5.63289991560871E-20     9.500996117377717E-15
1.45E-5                   -2.305158000335546E-13   -7.540322150287933E-14   -9.390460363350316E-14   -2.419079087630863E-14   -2.3314566900205907E-14  -1.8093742978958217E-15  1.7928438558710672E-16   2.7191292826726887E-17   -1.6009801044613002E-18  7.916205057908314E-20    1.6824723537610388E-14
1.4999999999999999E-5     -4.3042169943211387E-13  -1.967755842374627E-13   -1.6431589433448116E-13  -9.770575940483906E-14   -5.955637912091285E-14   -4.051868459779646E-15   -6.295217495095243E-16   5.929613597482305E-17    -2.608434973887231E-19   -1.4417320145768868E-19  3.1608455153590244E-14
1.55E-5                   -8.259233209588922E-13   -3.6783620673473996E-13  -3.2678379708588866E-13  -3.0084370917951313E-13  -1.4966128958613981E-13  -7.472125357603831E-15   -1.428499013444423E-15   -2.4722010051557212E-17  2.36342026440923E-18     -5.173662402100044E-19   6.660932595448684E-14
1.6E-5                    -1.6952700671417078E-12  -5.631505320034182E-13   -6.638531942342142E-13   -6.411858315870554E-13   -3.181845117045812E-13   -1.39673619538235E-14    -1.0692854664204406E-15  -2.2673841644838886E-16  3.5609995850443157E-19   -3.4671942941419536E-19  1.42687844453117E-13
1.6499999999999998E-5     -3.392353075571173E-12   -8.794808380031297E-13   -1.1182465893173738E-12  -1.0638420047942009E-12  -5.793466834751468E-13   -2.9891087538594726E-14  -1.448116668352184E-16   -2.8745511495558854E-16  -9.409866229192773E-18   6.222443398184055E-19    2.879567410835553E-13
1.7E-5                    -6.149377134643303E-12   -1.5990158057363368E-12  -1.6290164285495823E-12  -1.5554892744210502E-12  -9.771141575423922E-13   -6.599927298926048E-14   -2.080292363141959E-15   3.846437126719252E-17    -2.0172258920821592E-17  2.01736499786128E-19     5.392718382540146E-13
1.75E-5                   -1.0312727347618499E-11  -3.0805431358147616E-12  -2.6212428154025383E-12  -2.395579887290529E-12   -1.696869601702343E-12   -1.3534639599336584E-13  -9.884598343949612E-15   3.425753876649779E-16    -2.969937535755659E-17   -5.29004505909935E-18    9.607787633269362E-13
1.8E-5                    -1.7120504421017624E-11  -5.6735652042828606E-12  -5.18613981710148E-12    -4.309748100278447E-12   -3.167795454046297E-12   -2.5734526902729196E-13  -2.121409348230431E-14   -5.19964602238689E-16    -6.188561910249294E-17   -1.500967757061855E-17   1.6999987530913037E-12
1.85E-5                   -2.8766889980056972E-11  -9.917022734075213E-12   -1.0249131021771296E-11  -8.102815776652816E-12   -5.9541578598404375E-12  -4.718396836296739E-13   -3.185326324355009E-14   -3.2231184343950747E-15  -1.4722611592920842E-16  -2.2305194346388328E-17  3.0523742398883797E-12
1.8999999999999998E-5     -4.642878263112429E-11   -1.6697615104398815E-11  -1.7292924279027877E-11  -1.383048818458941E-11   -1.032248409580873E-11   -8.538217711204565E-13   -5.2064888520022926E-14  -6.643825379506919E-15   -2.896026986547552E-16   -3.277594057126906E-17   5.411772395108536E-12
1.95E-5                   -6.748371183100599E-11   -2.6591612008017595E-11  -2.4322696549146796E-11  -2.0421572659720846E-11  -1.5779321336022238E-11  -1.5273998856659547E-12  -1.1725829610636147E-13  -9.115298121368365E-15   -5.560143508460729E-16   -8.885841408420443E-17   9.006158517701105E-12
1.9999999999999998E-5     -8.541770676480382E-11   -3.855926699444181E-11   -2.972881943302244E-11   -2.6539020396638696E-11  -2.1204316713590615E-11  -2.7009602962234746E-12  -2.6543495323450696E-13  -1.2904266726548427E-14  -1.2748092985069325E-15  -2.578251402821499E-16   1.3574264577311068E-11
2.05E-5                   -9.390263130247107E-11   -4.9728382049938027E-11  -3.4161709607546866E-11  -3.189889709638958E-11   -2.575685834626352E-11   -4.710289807186471E-12   -4.978385788942608E-13   -2.7804569609045227E-14  -2.9983380820533155E-15  -5.899335091378918E-16   1.8383316299411112E-11
2.1E-5                    -9.149550857652074E-11   -5.742592446120478E-11   -3.978937051660369E-11   -3.719918507093561E-11   -2.96278697907505E-11    -7.954092547401337E-12   -7.993636744280026E-13   -6.881717849097354E-14   -6.148706026830553E-15   -1.1648376546179009E-15  2.2748869238855354E-11
2.1499999999999997E-5     -8.163975767963801E-11   -6.150692253934811E-11   -4.7107223053340036E-11  -4.2343291870073675E-11  -3.343781734860487E-11   -1.2616191382489004E-11  -1.257491789245019E-12   -1.497102050089114E-13   -1.127841218201432E-14   -2.3170620347423606E-15  2.6546813756074384E-11
2.2E-5                    -6.743981539603813E-11   -6.363273836753877E-11   -5.2887349464480156E-11  -4.526269456863225E-11   -3.66937359595872E-11    -1.833051993495357E-11   -2.1630143193148823E-12  -2.8165704915856627E-13  -2.0884879171910213E-14  -4.893571426739284E-15   2.997963265264946E-11
2.2499999999999998E-5     -4.712179318903264E-11   -6.370610665649118E-11   -5.223469303763608E-11   -4.3370835459677474E-11  -3.742488817280796E-11   -2.418876843956238E-11   -3.901478653861733E-12   -4.843901192383236E-13   -4.1444804555614335E-14  -1.0331539450920134E-14  3.2706704307011884E-11
2.3E-5                    -1.5951771045655373E-11  -5.8079292665770785E-11  -4.290782699614096E-11   -3.608529200016025E-11   -3.3969308564367937E-11  -2.9248399185468604E-11  -6.645034749346082E-12   -8.095874206375937E-13   -8.295805942967253E-14   -2.0813588878546955E-14  3.348894977338091E-11
2.35E-5                   2.7476290147159004E-11   -4.253816670295984E-11   -2.6793362628679633E-11  -2.489892482617508E-11   -2.669339261175114E-11   -3.3076436867254044E-11  -1.01547706192416E-11    -1.3696722009314734E-12  -1.5721095279213015E-13  -4.023149732540673E-14   3.1104071222295425E-11
2.4E-5                    7.891438303765554E-11    -1.6598320267160868E-11  -6.518670875487907E-12   -1.0620551558254433E-11  -1.6932981329914452E-11  -3.567154300231198E-11   -1.3968178614105961E-11  -2.3509279915486408E-12  -2.8122680483159076E-13  -7.622171251126037E-14   2.553928961527199E-11
2.45E-5                   1.3392318036715408E-10   1.663191319758016E-11    1.8626134501856606E-11   8.466458085695065E-12    -4.249918842154966E-12   -3.678513623984719E-11   -1.7797913462426497E-11  -3.967101951649479E-12   -4.884533031330139E-13   -1.4250731238445425E-13  1.7693601403114106E-11
2.4999999999999998E-5     1.9437864310352548E-10   5.505644869202282E-11    5.2202033168913385E-11   3.4967540663556137E-11   1.4073516669250098E-11   -3.5453232939452476E-11  -2.1645617780443477E-11  -6.3260791856064806E-12  -8.385571794320718E-13   -2.6082446119995975E-13  7.5551224937546E-12
2.55E-5                   2.67146409011901E-10     1.0075784370758032E-10   9.622168753112076E-11    6.974461135282292E-11    4.0268179882742724E-11   -3.0374629192968245E-11  -2.5437458425067454E-11  -9.276238214763695E-12   -1.4151234816434202E-12  -4.628073030856465E-13   -6.912919596740197E-12
2.6E-5                    3.562711659851716E-10    1.5781378825485979E-10   1.4846290015233086E-10   1.1197378346252547E-10   7.377765908354738E-11    -2.0754369841268336E-11  -2.861278266883195E-11   -1.23841338468279E-11    -2.3133946642700885E-12  -7.916907628858776E-13   -2.842963582198729E-11
2.65E-5                   4.5847211589631583E-10   2.2754812155137432E-10   2.0442184038537792E-10   1.6106755511142088E-10   1.1257749037287048E-10   -6.635297508267231E-12   -3.022686872022331E-11   -1.5117519338654833E-11  -3.620399354482528E-12   -1.3005537971690884E-12  -5.791010463755535E-11
2.7E-5                    5.663552339952544E-10    3.0632227928178876E-10   2.607827984786143E-10    2.1673599291172866E-10   1.5598338477996047E-10   1.1685443954001642E-11   -2.9513671746289454E-11  -1.7093513251352127E-11  -5.365657164779204E-12   -2.0419654959916426E-12  -9.37870491644788E-11
2.7499999999999998E-5     6.73098554162812E-10     3.8729117138330164E-10   3.164443424200189E-10    2.7690267857701126E-10   2.046971016526037E-10    3.451699396899175E-11    -2.6231850372994267E-11  -1.8157892684712504E-11  -7.423965314036076E-12   -3.0469902871081077E-12  -1.3388413862702661E-10
2.8E-5                    7.723603997661144E-10    4.6400145977226466E-10   3.713269166838442E-10    3.371594452942611E-10    2.5797590340634874E-10   6.29814973626664E-11     -2.0325284379245493E-11  -1.8240420036724803E-11  -9.431738858117777E-12   -4.296874077148078E-12   -1.7736831896154695E-10
2.8499999999999998E-5     8.562886234276358E-10    5.335201209225331E-10    4.251341100608936E-10    3.9323052377663985E-10   3.1203487973535176E-10   9.834979812869541E-11    -1.1299941988409508E-11  -1.717225604598305E-11   -1.0856397720848396E-11  -5.695219183037805E-12   -2.2443544425572944E-10
2.9E-5                    9.172865087036428E-10    5.973127543505208E-10    4.762230679877526E-10    4.4316729409045833E-10   3.6211164042891545E-10   1.4111746750977602E-10   1.8277819218754286E-12   -1.4652513358015203E-11  -1.1271793790849368E-11  -7.05683415349687E-12    -2.7454638569689907E-10
2.95E-5                   9.516415711589353E-10    6.582966588047526E-10    5.201493216661112E-10    4.863794524960898E-10    4.0566235126792503E-10   1.9049838297049273E-10   1.9816071938907112E-11   -1.0343982822440471E-11  -1.0645069579443396E-11  -8.14119397915998E-12    -3.257296927900767E-10
2.9999999999999997E-5     9.58406673998817E-10     7.150012961120727E-10    5.496900305529475E-10    5.210561076897534E-10    4.4271483596519626E-10   2.4448175248894806E-10   4.259345991851563E-11    -3.953310207386563E-12   -9.314565232808578E-12   -8.746793743280828E-12   -3.755531514189237E-10
3.05E-5                   9.332439666153408E-10    7.577318156827645E-10    5.578697917212505E-10    5.42935809105839E-10     4.729944315717122E-10    3.002695023857922E-10    6.968670826448212E-11    4.773547267110698E-12    -7.588798472035312E-12   -8.820484135171472E-12   -4.2194015191472965E-10
3.1E-5                    8.647350058746044E-10    7.712317294038917E-10    5.413459469398361E-10    5.458176583783195E-10    4.93129705252364E-10     3.5496995243591895E-10   1.0129193599174188E-10   1.60877862918751E-11     -5.3321979816868666E-12  -8.465217448301593E-12   -4.6251558221582395E-10
3.15E-5                   7.382522866597608E-10    7.420740336930457E-10    5.00001730976699E-10     5.228158689251161E-10    4.967701346471163E-10    4.062916243130575E-10    1.3850369453769895E-10   3.022117197052335E-11    -1.9951056692545782E-12  -7.762171713720161E-12   -4.934513362104086E-10
3.2E-5                    5.434232231680821E-10    6.640213381213753E-10    4.3310792449096026E-10   4.681579821810102E-10    4.77110313915357E-10     4.525883698507219E-10    1.820088324726797E-10    4.727862703437738E-11    2.9160782749088514E-12   -6.5009591241432425E-12  -5.093897464418923E-10
3.25E-5                   2.776019528431907E-10    5.371281491696938E-10    3.366212882880576E-10    3.788068251074404E-10    4.2923715649252784E-10   4.918482102239509E-10    2.3055102894071523E-10   6.710201926367098E-11    9.455492061076983E-12    -4.080085780509347E-12   -5.044858252977821E-10
3.2999999999999996E-5     -5.695372478336769E-11   3.629004293403335E-10    2.042040280641185E-10    2.5395425863599544E-10   3.505628093445777E-10    5.203957848283413E-10    2.8106306963008337E-10   8.926382276472225E-11    1.7386823494231345E-11   2.3445395984064997E-13   -4.73464177528865E-10
3.35E-5                   -4.5797057838695295E-10  1.406150072929514E-10    3.012346074184482E-11    9.239678316624908E-11    2.3963982822308057E-10   5.327993022460969E-10    3.304394016120054E-10    1.132658962259838E-10    2.666151236463589E-11    6.832963973192056E-12    -4.120777211632362E-10
3.4E-5                    -9.250547915083623E-10   -1.327122905675833E-10   -1.8847522412247232E-10  -1.088328851153873E-10   9.477979510092352E-11    5.233580036563091E-10    3.767928958739734E-10    1.3871751505616932E-10   3.759038529718614E-11    1.5479358726230995E-11   -3.1711418728825225E-10
3.45E-5                   -1.4572509597429582E-9   -4.59734439208523E-10    -4.504815398290262E-10   -3.523178571140066E-10   -8.629121608618386E-11   4.875875028588294E-10    4.186189590384903E-10    1.6514336639494597E-10   5.0433413613240893E-11   2.5520695849404526E-11   -1.8607876059958903E-10
3.5E-5                    -2.0482939955526897E-9   -8.397210140834985E-10   -7.510611468498854E-10   -6.370252326608051E-10   -3.0540362556580857E-10  4.2186823431727294E-10   4.529918017824573E-10    1.9149886379889745E-10   6.488524590671321E-11    3.6448656154922974E-11   -1.6680464540701113E-11
3.5499999999999996E-5     -2.6826808861248174E-9   -1.2666136502292762E-9   -1.0833875147687492E-9   -9.574810295808452E-10   -5.622379289814303E-10   3.2159278054573856E-10   4.751824192709928E-10    2.1601880770932688E-10   8.014263171965032E-11    4.832876896602693E-11    1.9322542760607515E-10
3.6E-5                    -3.3353814241000607E-9   -1.7288761464965439E-9   -1.4399956725516309E-9   -1.3049640837420427E-9   -8.532193582426621E-10   1.80264647721672E-10     4.801877390028419E-10    2.368056407564892E-10    9.557943325204906E-11    6.170855995707908E-11    4.446304259483882E-10
3.65E-5                   -3.976167769743716E-9    -2.210995307937348E-9    -1.8110795247289134E-9   -1.668184691042685E-9    -1.1718294649779915E-9   -8.709991606669168E-12   4.6413540961115867E-10   2.5259703605963373E-10   1.1126431721822909E-10   7.70591789440143E-11     7.359017744849057E-10
3.7E-5                    -4.575744561710043E-9    -2.6957046137972774E-9   -2.18102481126164E-9     -2.0332948257643567E-9   -1.5097980064320285E-9   -2.487392369649204E-10   4.237421391045487E-10    2.626829014406118E-10    1.2760669598705366E-10   9.41860287879193E-11     1.0622722210690936E-9
3.75E-5                   -5.108131407367057E-9    -3.1654861815691967E-9   -2.5283233016298478E-9   -2.3847028674111104E-9   -1.857666807558182E-9    -5.381663393522984E-10   3.546148615128802E-10    2.6580081671295494E-10   1.443394625089147E-10    1.1204639970995018E-10   1.4166390741513115E-9
3.7999999999999995E-5     -5.546536796384533E-9    -3.60204614469577E-9     -2.8306522033167927E-9   -2.7060909954397024E-9   -2.2038729704451377E-9   -8.711474882189091E-10   2.5075465038975595E-10   2.5910527749678816E-10   1.5982020048791888E-10   1.290693565192349E-10    1.7902629553783427E-9
3.85E-5                   -5.856852767938431E-9    -3.9837195894782455E-9   -3.0698015777709235E-9   -2.97987425470984E-9     -2.5332848642361746E-9   -1.2398929974218371E-9   1.0624966755781039E-10   2.3839554784679955E-10   1.713504667335739E-10    1.4368163117484975E-10   2.1720313401054487E-9
3.9E-5                    -5.996122126204938E-9    -4.282784872496233E-9    -3.230706963836007E-9    -3.1859873663201565E-9   -2.8269311829786027E-9   -1.636085091729483E-9    -8.229604784179812E-11   1.9953964356967543E-10   1.7618725133732274E-10   1.5461046467683085E-10   2.5469571708698347E-9
3.95E-5                   -5.918538323184053E-9    -4.465589542223E-9       -3.2963057274506107E-9   -3.3025865523931125E-9   -3.063353016680271E-9    -2.0506341057317467E-9   -3.14642132547847E-10    1.3987649005434896E-10   1.7231589540194347E-10   1.6076337181655647E-10   2.8958612811106665E-9
3.9999999999999996E-5     -5.584231233967716E-9    -4.49660546301958E-9     -3.2449337911193495E-9   -3.3083618379073198E-9   -3.2202288908490512E-9   -2.472252943802472E-9    -5.875398005320682E-10   5.851138228967278E-11    1.5847051150611812E-10   1.6088105098876633E-10   3.1969676445882627E-9
4.0499999999999995E-5     -4.964501735193977E-9    -4.344253536720066E-9    -3.0532350042833788E-9   -3.183416896742625E-9    -3.275100571355065E-9    -2.8856939371405665E-9   -8.958986277066672E-10   -4.4451363178938835E-11  1.3370729142352972E-10   1.5335042637799566E-10   3.4279494291719695E-9
4.1E-5                    -4.041763725790372E-9    -3.984876702882841E-9    -2.7013580763563273E-9   -2.9082605218153065E-9   -3.205910037287551E-9    -3.270696059755493E-9    -1.233291507645908E-9    -1.6876125705365659E-10  9.710823377434412E-11    1.3635087954975165E-10   3.566581766719224E-9
4.15E-5                   -2.806973322990306E-9    -3.4031856300895968E-9   -2.176505429511435E-9    -2.4644692577902663E-9   -2.992839768514047E-9    -3.602671506866882E-9    -1.591747775798119E-9    -3.140574788624239E-10   4.7799815093545295E-11   1.0812816495731169E-10   3.5900447807583943E-9
4.2E-5                    -1.2580490767762898E-9   -2.5906867455171096E-9   -1.4741502952305403E-9   -1.838999599941713E-9    -2.6211482458971437E-9   -3.854950252107349E-9    -1.961482668415773E-9    -4.790911520301156E-10   -1.491757090981574E-11   6.709454957245985E-11    3.474714444982124E-9
4.2499999999999996E-5     5.986204634512946E-10    -1.5446599672407472E-9   -5.97719422799582E-10    -1.028636256161034E-9    -2.08253536464773E-9     -4.000795642362364E-9    -2.33085136708061E-9     -6.609525741204683E-10   -9.145252139968912E-11   1.1745185788898935E-11   3.1977828460400575E-9
4.2999999999999995E-5     2.7433676789711637E-9    -2.686768028721518E-10   4.4293796978845955E-10   -4.002915077665851E-11   -1.3734198021179647E-9   -4.013704390101457E-9    -2.686222971106718E-9    -8.550037700163149E-10   -1.8168019814036695E-10  -5.931974494651672E-11   2.7399253291157594E-9
4.35E-5                   5.137627478052101E-9     1.2259620407923902E-9    1.6332061788692566E-9    1.1137006575487665E-9    -4.921982424473702E-10   -3.866805268232602E-9    -3.01155354365834E-9     -1.0553019101591426E-9   -2.84532054280893E-10    -1.470374675517644E-10   2.08712820773944E-9
4.4E-5                    7.721851112373042E-9     2.9183558923050893E-9    2.953229927651772E-9     2.4143958178613215E-9    5.603444025010598E-10    -3.5335440834267663E-9   -3.2879871779899327E-9   -1.2547048061372658E-9   -3.977847049526724E-10   -2.512939932822598E-10   1.2310254258955653E-9
4.45E-5                   1.0418938608760279E-8    4.775646613796231E-9     4.37466733714265E-9      3.835895173784016E-9     1.7762433306423957E-9    -2.9904119077691715E-9   -3.4939468231335465E-9   -1.444407453824036E-9    -5.184874874307031E-10   -3.7046123281889295E-10  1.690354761567051E-10
4.4999999999999996E-5     1.3140009829958702E-8    6.750805218743531E-9     5.857144906828988E-9     5.340345744179698E-9     3.135105047407282E-9     -2.2201550571252556E-9   -3.6057029907031465E-9   -1.6137389972537824E-9   -6.438410523980203E-10   -5.013790369063155E-10   -1.094229764761067E-9
4.5499999999999995E-5     1.5787604892350532E-8    8.781977221877268E-9     7.347291100355961E-9     6.8783454677747835E-9    4.603252515119483E-9     -1.2136344107583047E-9   -3.5981116989621425E-9   -1.7511713897174085E-9   -7.716258016514088E-10   -6.398041582169587E-10   -2.544569252631643E-9
4.6E-5                    1.8255372710938668E-8    1.0793958347961052E-8    8.780790836713734E-9     8.392328636523808E-9     6.1373287845134216E-9    2.971412761444251E-11    -3.445592545995401E-9    -1.8462239644345164E-9   -8.994506908434255E-10   -7.809705660911792E-10   -4.156499266838906E-9
4.65E-5                   2.0427703329786932E-8    1.2701009794086713E-8    1.0086392012476773E-8    9.819052106811186E-9     7.687958827045538E-9     1.5015323116408404E-9    -3.123816730558529E-9    -1.8906767224883853E-9   -1.0231822236384426E-9   -9.197624031319716E-10   -5.8932396801535975E-9
4.7E-5                    2.218259300424364E-8     1.4410460028796072E-8    1.1191119767034402E-8    1.108987523538543E-8     9.200346007168705E-9     3.1835966567400854E-9    -2.6121469441220428E-9   -1.877860698768774E-9    -1.1358152542340299E-9   -1.0503378132110734E-9   -7.70756357062099E-9
4.7499999999999996E-5     2.339784307802533E-8     1.5827516110569007E-8    1.2025565400058138E-8    1.2131975212808736E-8    1.0613187635730201E-8    5.046843788642687E-9     -1.8959782471419493E-9   -1.8006012745997744E-9   -1.2277979453908773E-9   -1.1656202370229555E-9   -9.542210568750567E-9
4.8E-5                    2.3958610186416574E-8    1.6860948325235536E-8    1.2527084834736872E-8    1.2872720260078119E-8    1.1858897142797591E-8    7.0510114227369865E-9    -9.679666813790567E-10   -1.649759692511708E-9    -1.2886705994630887E-9   -1.2572592766984223E-9   -1.132989758941728E-8
4.85E-5                   2.3764402447789056E-8    1.7427494623513542E-8    1.264019611688988E-8     1.3244614352953444E-8    1.2865888047548709E-8    9.144498933757956E-9     1.7192775987103964E-10   -1.4148254377285938E-9   -1.3088816716220186E-9   -1.3162093057406884E-9   -1.2994138486333778E-8