% Model:              Untitled.mph
% Version:            COMSOL 6.0.0.405
% Date:               Jul 17 2025, 07:43
% Dimension:          1
% Nodes:              401
% Expressions:        11
% Description:        Point graph
% Time (s)                Displacement field, Y component Displacement field, Y component Displacement field, Y component Displacement field, Y component Displacement field, Y component Displacement field, Y component Displacement field, Y component Displacement field, Y component Displacement field, Y component Displacement field, Y component Displacement field, Y component
0                         8.637849514255341E-33    3.967193901836314E-31    1.1121747002068675E-30   1.944952048928694E-30    7.439706202106061E-31    5.722322407278766E-32    1.646520429229256E-31    2.2686332224859092E-32   1.0809614982815234E-33   6.335685021848161E-35    2.1071265212405503E-31
5.0E-7                    -7.385531992404614E-25   7.204730005906532E-24    2.0576348315531397E-22   -3.0607606834754154E-22  -1.4832534566447782E-22  3.82821276019652E-24     7.94151377478886E-23     2.283361779596069E-24    -2.856106763624678E-26   -7.658568212176257E-27   -3.0199999607332E-23
1.0E-6                    -8.374114319891821E-25   -2.8868799937302184E-22  -1.5162670881462033E-21  -4.037684423443969E-22   8.402877220927929E-23    -1.933533922407183E-22   -4.403766164390336E-22   -2.8922443482971084E-23  -6.7563924813775535E-25  -8.093939761746549E-27   4.0954146564891785E-23
1.5E-6                    7.857666233565507E-24    1.3861995755358508E-22   1.0986395033654555E-21   5.107235057044419E-21    1.6074902529096806E-21   7.797869487296864E-22    7.540746819496195E-22    8.775458398757865E-23    3.5050535511985364E-24   6.72589836203383E-26     1.4663412483552024E-24
2.0E-6                    -4.2458369777657465E-23  6.587474797369842E-22    -9.533916489943629E-21   -1.0164684954584823E-21  -3.722614057335571E-21   -3.651344725175319E-22   -6.883975647548378E-22   -1.6225686737898356E-22  -8.408505470444555E-24   -2.473589047346741E-25   5.0011765872373335E-22
2.4999999999999998E-6     3.993986878417086E-23    1.2392116363617463E-20   7.670310983658679E-20    -4.0679685299625683E-20  -1.6056661435123876E-23  -4.30102550741928E-21    -1.8910041776333087E-21  4.216998463169491E-23    1.2189687632167687E-23   7.613274561047885E-25    -2.6261493987432515E-21
3.0E-6                    2.8868792007329757E-22   -3.46741469852184E-20    1.8710083418525505E-20   -6.765872396607373E-20   -9.692613596634961E-21   8.569119709794797E-21    1.2813861729965755E-20   1.3100213847515952E-21   1.7454264363160143E-23   -6.737053119748609E-26   -7.478996638394789E-21
3.5E-6                    3.717883670772844E-22    -6.741437419741474E-20   -6.597780125801811E-19   5.3672625331035165E-19   4.343409269319298E-20    2.15352692283238E-20     2.0099170993763385E-20   -8.923971867314576E-22   -1.27421878767534E-22    -2.3917717479177448E-24  2.132027231092748E-20
4.0E-6                    -2.6245639467381588E-21  2.287177981814673E-19    -2.6547299905436146E-19  4.854369898212241E-19    9.737518298582726E-20    -7.904302454692574E-20   -1.0163330625863816E-19  -1.1539613905906785E-20  -3.646644908882234E-23   -3.4234164684136148E-25  7.047036385471527E-20
4.5E-6                    -2.4816652657008688E-21  4.06852631151733E-19     3.8171909450344445E-18   -3.3481351302414414E-18  -1.648788014048183E-19   -7.630878683918455E-20   -1.0423714695990461E-19  6.425714860189459E-21    1.0142150674059419E-21   -3.1565479177808103E-24  -8.339268790016871E-20
4.9999999999999996E-6     1.3332702714633578E-20   -8.585191521920563E-19   4.099548013506714E-18    -3.905443590516332E-18   -6.769192884239383E-19   5.270276569655882E-19    4.826641773275468E-19    7.814511551949505E-20    4.628708321379301E-22    -3.9762487450576974E-24  -6.442244932598775E-19
5.5E-6                    9.361385346576615E-21    -2.2107385076866674E-18  -1.4140576413363336E-17  1.3758954237582211E-17   6.973376062820404E-19    4.610755608904738E-19    4.770517133825205E-19    7.315823362540081E-21    -5.652304952823013E-21   9.963197126613464E-23    -6.830050645454393E-19
6.0E-6                    -3.692652095841903E-20   1.993674666416816E-18    -2.741399913477657E-17   2.7675207164440367E-17   6.294654634973028E-18    -1.8430807988086997E-18  -5.865701151051355E-19   -3.554277273443948E-19   -5.03842967626399E-21    1.9594970607869318E-22   1.8989603677181324E-18
6.5E-6                    4.435680213918902E-20    1.0727951883237507E-17   3.0657274283295E-17      -2.6430387183458678E-17  1.2379988479745853E-18   -1.1949383792428867E-18  1.0335315918627056E-18   -2.6564600632628186E-19  2.4451802078938715E-20   -5.003098851598734E-22   5.315442975623649E-18
7.0E-6                    2.704555829133663E-19    5.82549412588946E-18     1.2394046382816831E-16   -1.1572247716670926E-16  -2.6417551250521868E-17  7.098633708673573E-18    1.851321203644371E-18    1.3268089951533518E-18   4.779094297756547E-20    -2.039741070141736E-21   -6.684936674059216E-18
7.499999999999999E-6      -2.3234403301070233E-19  -2.972816508257117E-17   3.0267014165466376E-17   -2.6358213251957825E-17  8.700939635878084E-18    9.396581938256346E-18    -8.84361771216186E-18    2.5041140004938833E-18   -4.81977059970249E-20    7.150041580121282E-23    -5.508340187203445E-17
8.0E-6                    -1.583148546413067E-18   -5.785042242495172E-17   -2.8842854248482774E-16  3.7973140212175165E-16   1.9173485995311334E-16   4.210407372564344E-18    1.7860617776591646E-18   -1.63987863734675E-18    -2.182754513140262E-19   1.3029157142410897E-20   -8.975455291234597E-17
8.5E-6                    6.153369051561971E-19    4.954859875807273E-17    -2.750292799952526E-16   7.121680654334243E-16    2.282256332536153E-16    4.7221223749675083E-17   1.0265262474985619E-16   -8.681277402794E-18      3.746410443981626E-20    1.7877539606216743E-20   4.045713048746232E-18
9.0E-6                    1.0142357209511046E-17   3.2569979757922583E-16   4.789772645740881E-16    -2.6695479170284292E-17  -2.009410996710542E-16   1.496555137098869E-16    1.9730415355931069E-16   -1.1379831775424885E-18  1.0545825456387629E-18   -4.23799935136264E-20    3.716493656518868E-18
9.499999999999999E-6      1.3157142425685233E-17   3.2146828794227027E-16   1.1570115690384095E-15   -1.6996988634378466E-15  1.263559446108491E-16    1.8080790294283617E-16   -1.7584236702052923E-17  3.564798219409102E-17    1.5144192766547979E-18   -9.708495072493813E-20   -9.762926787442425E-16
9.999999999999999E-6      -1.4852273758030956E-17  -5.370912350774051E-16   1.2922312961766585E-15   8.939497901669146E-17    3.581952913287208E-15    3.128988810860972E-16    -3.2859781151507965E-16  7.608726662669494E-17    -6.927334949311526E-19   1.956390049320757E-19    -3.556977059019136E-15
1.05E-5                   -4.4053620492122214E-17  -1.2382359561538478E-15  2.359365865345949E-15    1.0167622234357686E-14   9.004869712347033E-15    1.6711140814196906E-15   6.584031078211383E-16    3.8571783695783423E-17   -2.8953821695266946E-18  8.383392086771792E-19    -7.0740143780006935E-15
1.1E-5                    5.392992390263727E-17    1.1915032586842005E-15   2.7575466793100857E-15   2.016666707199463E-14    1.1868892404754987E-14   5.437795660310466E-15    3.750568659484443E-15    -1.0820126014057635E-16  6.290133440319741E-18    8.801129316370132E-19    -1.2824870450523986E-14
1.15E-5                   3.6074667038056553E-16   7.158215141855723E-15    -2.164521351340945E-15   1.3825920221955864E-14   2.064135451662705E-14    1.0862831720502402E-14   5.911210406636564E-15    -4.744890790526434E-17   3.660506920950357E-17    6.850410996394984E-19    -3.192929034931669E-14
1.2E-5                    6.510504084935418E-16    9.83892880257261E-15     3.399915592896313E-15    1.2088495361922522E-14   6.990454922628464E-14    1.828782979668519E-14    2.9564471272662825E-15   8.828013818787485E-16    7.320483952633027E-17    5.822866335565809E-18    -8.828481396108427E-14
1.2499999999999999E-5     6.143043615537128E-16    3.059238165310032E-15    6.007109712633634E-14    8.627225314048194E-14    1.9346925338763136E-13   4.016323035488755E-14    7.885580054096619E-16    2.5000161733649172E-15   8.512428685447069E-17    2.5031197542322607E-17   -2.1215486162628443E-13
1.3E-5                    1.0115031029253877E-15   1.6728970632240437E-16   1.517434644134369E-13    2.6149428906968157E-13   3.95825580333623E-13     1.0594902745999132E-13   1.7593777240048236E-14   2.6719112049154363E-15   1.300640968964908E-16    6.585682280502635E-17    -4.5041171476124166E-13
1.35E-5                   4.5922169722124946E-15   3.3401454922483856E-14   1.548943956034764E-13    4.569005862081253E-13    7.359943301258573E-13    2.47645307395875E-13     5.892473631454931E-14    5.227067864257358E-16    4.997914900869552E-16    1.5465651046662401E-16   -9.268898850724693E-13
1.4E-5                    1.4574726329527984E-14   1.1320603207556249E-13   6.537786069281433E-14    6.869015706061123E-13    1.4871744417200818E-12   4.978416622519069E-13    9.740202717426098E-14    3.1020328484887404E-15   1.6480128207028514E-15   4.0053492381479306E-16   -1.912566070488888E-12
1.45E-5                   3.240609672989929E-14    2.0002417021366297E-13   3.084263613534535E-13    1.2867863855983824E-12   3.0999126196184326E-12   9.514382560587795E-13    1.2372828450986524E-13   2.2908611123207683E-14   3.880644685491682E-15    1.0908066623245694E-15   -3.808680497185537E-12
1.4999999999999999E-5     6.283081890091216E-14    2.752954117147938E-13    1.4037112165814014E-12   2.664516954297134E-12    5.93742534059864E-12     1.850936210895421E-12    2.4375912082001813E-13   6.041203714846709E-14    7.71924088872115E-15     2.8394990336506312E-15   -7.096876596516888E-12
1.55E-5                   1.2951134574724093E-13   4.629243285826583E-13    3.0282829222838638E-12   4.9531497144467615E-12   1.0336089958734345E-11   3.58289875511035E-12     6.535871550716935E-13    9.980298070770863E-14    1.6142920665196835E-14   6.9558007220625405E-15   -1.2471052012423429E-11
1.6E-5                    2.871085045152334E-13    9.842913135787423E-13    4.1308434612107685E-12   8.60894713386911E-12     1.722234143998632E-11    6.6240863941124E-12      1.4266359458736757E-12   1.5220275638057463E-13   3.802719609402982E-14    1.637425208134506E-14    -2.0967802184654686E-11
1.6499999999999998E-5     6.170645692350037E-13    1.913620045341433E-12    5.0530499418968E-12      1.5353951170686635E-11   2.8110376002438817E-11   1.1618983512812805E-11   2.42841041867345E-12     3.107917926265859E-13    9.020813142437554E-14    3.762573470422123E-14    -3.3281594657417136E-11
1.7E-5                    1.2294386165003E-12      3.1822056349734547E-12   8.999264244415332E-12    2.7020563471125477E-11   4.3265410899894257E-11   1.944615172314415E-11    3.7493109126441266E-12   7.268401894596754E-13    1.9840896072142657E-13   8.442583993540927E-14    -4.8181890046944905E-11
1.75E-5                   2.301130192516429E-12    5.201948911857228E-12    1.9259634427577745E-11   4.2392779285512416E-11   5.961890207214657E-11    3.0722002396949414E-11   6.334100282845265E-12    1.5149070719311747E-12   4.0352775170498364E-13   1.8341695569351763E-13   -6.202740709808239E-11
1.8E-5                    4.1194265214691315E-12   9.421518748697762E-12    3.43087681239935E-11     5.668138458738841E-11    7.190249714139604E-11    4.4753574906255126E-11   1.1759345750522598E-11   2.760709353937381E-12    7.80430528533124E-13     3.8245257710400025E-13   -7.124915886546703E-11
1.85E-5                   7.074875814030126E-12    1.751594069354462E-11    4.7997777725902866E-11   6.61240344231683E-11     7.692970555483232E-11    5.914090575899009E-11    2.0785002984957347E-11   4.740101890102222E-12    1.466123660999519E-12    7.619584565622448E-13    -7.552080584435286E-11
1.8999999999999998E-5     1.1616770221131318E-11   2.939446032440095E-11    5.6428261699700044E-11   7.190110254146581E-11    7.5765393852257E-11      7.096743714804623E-11    3.208448207886576E-11    8.122679733319886E-12    2.6784469906199177E-12   1.4495163724698754E-12   -7.684213124474832E-11
1.95E-5                   1.8124550767062506E-11   4.23420270334235E-11     6.241367009455677E-11    7.665174451458797E-11    7.050128891339443E-11    7.841811348867332E-11    4.294846837025153E-11    1.3751181382066798E-11   4.6953000985322E-12      2.632900615209936E-12    -7.493616627195298E-11
1.9999999999999998E-5     2.6453222564147293E-11   5.286939650443727E-11    6.998704712992915E-11    7.803318997869328E-11    6.03679065834623E-11     8.07749862761339E-11     5.1481157982056426E-11   2.191349059070548E-11    7.770670434880418E-12    4.554297533354373E-12    -6.597999970705116E-11
2.05E-5                   3.526749730187505E-11    5.936315480147704E-11    7.612831905118028E-11    7.012392066662267E-11    4.3325454298076524E-11   7.702347968293447E-11    5.756517046690809E-11    3.159927409141912E-11    1.1997261659934324E-11   7.455754228100636E-12    -4.784070161012106E-11
2.1E-5                    4.225689931942394E-11    6.232105687348127E-11    7.272983738982379E-11    5.202701599142822E-11    2.0253745848223536E-11   6.554579810359464E-11    6.120353697865792E-11    4.045764178209794E-11    1.7166051001483066E-11   1.1453064993271238E-11   -2.412499000949722E-11
2.1499999999999997E-5     4.60127520185573E-11     6.222071225851627E-11    5.716720026939707E-11    3.0056840306564446E-11   -6.134211307674916E-12   4.572793373255861E-11    6.053664215765684E-11    4.575776437217041E-11    2.2679529033372077E-11   1.6362518758089287E-11   9.187561940460192E-13
2.2E-5                    4.768155790667028E-11    5.820186636277817E-11    3.576953819531836E-11    8.019774687301113E-12    -3.681186355612112E-11   1.9013962740698088E-11   5.2675708734699904E-11   4.5817213202249754E-11   2.7559779544696276E-11   2.158631260428574E-11    3.091654865499365E-11
2.2499999999999998E-5     4.922625729877512E-11    4.90301717941172E-11     1.4094250499954343E-11   -2.0876686495707382E-11  -7.719032202891526E-11   -1.271641192267005E-11   3.6707130352586834E-11   4.070928786320953E-11    3.060375149133759E-11    2.620727189033277E-11    7.622473546660218E-11
2.3E-5                    4.9367324303588584E-11   3.4278270614961145E-11   -1.2078751926511798E-11  -6.7475010074309E-11     -1.311938194565641E-10   -4.9898756590371104E-11  1.4828895028949164E-11   3.143265921525456E-11    3.0716687244277226E-11   2.932794396661024E-11    1.4253043995872195E-10
2.35E-5                   4.3225334577849244E-11   1.393844327855758E-11    -5.1689798589598376E-11  -1.338086701828227E-10   -1.9805729092129131E-10  -9.603687730840687E-11   -1.0276765308877869E-11  1.8323963395352258E-11   2.7296133659027275E-11   3.041148143566999E-11    2.2402803287637682E-10
2.4E-5                    2.7790826177435063E-11   -1.2439388692009358E-11  -1.0670936410495616E-10  -2.1190252515689273E-10  -2.766273706265497E-10   -1.5570044499647012E-10  -3.8614993867974475E-11  7.063093591783028E-13    2.039652612012987E-11    2.9251219407052944E-11   3.1080897880848364E-10
2.45E-5                   5.729059542858994E-12    -4.5757305746957296E-11  -1.7051368791336428E-10  -2.9502361156007694E-10  -3.6864554009851075E-10  -2.315396678152446E-10   -7.255949072632307E-11   -2.1584885718222396E-11  1.0557582935248488E-11   2.5549184010987882E-11   4.004081982128111E-10
2.4999999999999998E-5     -1.9455509877186607E-11  -8.730192188874285E-11   -2.374881484265981E-10   -3.8461117903219777E-10  -4.735429688477812E-10   -3.22221570887345E-10    -1.1393880970979754E-10  -4.7088916404764596E-11  -1.5516325252542522E-12  1.8615868092597753E-11   4.97651427097963E-10
2.55E-5                   -5.0661693790311665E-11  -1.3919632193347364E-10  -3.0927998178970437E-10  -4.839891681233019E-10   -5.820339267287724E-10   -4.2243970709710383E-10  -1.629789889118051E-10   -7.439674078996356E-11   -1.5579111650758733E-11  7.594687932251484E-12    6.039454706538381E-10
2.6E-5                    -9.503922207311182E-11   -2.0382176938496084E-10  -3.8991176587769514E-10  -5.894035297777899E-10   -6.803468521235832E-10   -5.253933882105197E-10   -2.2026317206514225E-10  -1.0480186986739209E-10  -3.203898699097142E-11   -8.149479290719577E-12   7.121369504921384E-10
2.65E-5                   -1.5425881861565228E-10  -2.8129078484535176E-10  -4.786255665397991E-10   -6.910245686384247E-10   -7.623857522884703E-10   -6.261898035623971E-10   -2.8761043474877375E-10  -1.414322588790967E-10   -5.2497921282614904E-11  -2.9038088766621022E-11  8.137795305546904E-10
2.7E-5                    -2.2151275199231669E-10  -3.673727627018698E-10   -5.70605104863827E-10    -7.812294489014733E-10   -8.337273425280568E-10   -7.228290448676421E-10   -3.6501711130772953E-10  -1.8464755971477568E-10  -7.856798737331668E-11   -5.5373895910313E-11     9.064483434839896E-10
2.7499999999999998E-5     -2.8981427870698476E-10  -4.5484339862372863E-10  -6.622657134794995E-10   -8.584795808735356E-10   -8.998341441714966E-10   -8.134927743468166E-10   -4.4732903954793386E-10  -2.2967187847108717E-10  -1.1003360814582939E-10  -8.682186542395072E-11   9.89266533591413E-10
2.8E-5                    -3.5899189034755153E-10  -5.375284990410574E-10   -7.515511204080351E-10   -9.226473234292771E-10   -9.525156313196071E-10   -8.936318883883604E-10   -5.260490191303353E-10   -2.7054581688361814E-10  -1.441680314887127E-10   -1.217750831783099E-10   1.0538259978592562E-9
2.8499999999999998E-5     -4.3157356370592696E-10  -6.132341980119262E-10   -8.329375687366469E-10   -9.685423504648728E-10   -9.734954604421932E-10   -9.568605989741551E-10   -5.949536331687596E-10   -3.0571271743825555E-10  -1.7757649199048384E-10  -1.5796777303272414E-10  1.0849839288913435E-9
2.9E-5                    -5.050230656422031E-10   -6.829240610096879E-10   -8.958365041412403E-10   -9.8518277359734E-10     -9.511456647172548E-10   -9.976906515755666E-10   -6.523847761818547E-10   -3.376944309314884E-10   -2.0872211022536995E-10  -1.9411173614810277E-10  1.0706079218496905E-9
2.95E-5                   -5.717787390005851E-10   -7.469764039776671E-10   -9.298324114608143E-10   -9.608083380076494E-10   -8.863913116319441E-10   -1.0102804729749151E-9   -6.971768205707015E-10   -3.674064842846567E-10   -2.3804636669524567E-10  -2.3038041645073135E-10  1.0060359083173694E-9
2.9999999999999997E-5     -6.254256086982307E-10   -8.015841376566768E-10   -9.292947549228303E-10   -8.873782800137484E-10   -7.787304658905976E-10   -9.832691046483342E-10   -7.238204223428597E-10   -3.9098546408609935E-10  -2.6564693428061757E-10  -2.668023036022609E-10   8.877086459008977E-10
3.05E-5                   -6.633531535660105E-10   -8.37932493945244E-10    -8.904721254503004E-10   -7.594667212329658E-10   -6.138038033668148E-10   -8.98963089703968E-10    -7.233094809069139E-10   -4.0270352502881623E-10  -2.896726019386022E-10   -3.016184235741974E-10   7.062842414606503E-10
3.1E-5                    -6.832228782346893E-10   -8.443662043085164E-10   -8.055728459777168E-10   -5.697723656551905E-10   -3.725067137315054E-10   -7.416196516177512E-10   -6.880608535647221E-10   -3.9864865924790375E-10  -3.0722422226815316E-10  -3.316069513299041E-10   4.4920589166955936E-10
3.15E-5                   -6.790804008081958E-10   -8.095133395705546E-10   -6.631763830419929E-10   -3.08756059889438E-10    -4.917011008241259E-11   -5.065486911118676E-10   -6.140544556941121E-10   -3.759681969676275E-10   -3.1580537639857066E-10  -3.533021172378432E-10   1.0900967619230537E-10
3.2E-5                    -6.419116009896596E-10   -7.244283872703834E-10   -4.5504184968697235E-10  2.88874379540425E-11     3.4637608724570766E-10   -1.9830106955812677E-10  -4.98077850057758E-10    -3.3041885395081853E-10  -3.129690690950231E-10   -3.63077540052423E-10    -3.1317000993824007E-10
3.25E-5                   -5.6322272142101E-10     -5.834939645906764E-10   -1.798768479197764E-10   4.389459877808082E-10    8.031029584898349E-10    1.8009895107357407E-10   -3.351426633327058E-10   -2.5752178865062354E-10  -2.950503360038512E-10   -3.565960220622136E-10   -8.119806113289847E-10
3.2999999999999996E-5     -4.372428704360981E-10   -3.843321345045769E-10   1.6096448283393914E-10   9.124927414153723E-10    1.3184103442921555E-9    6.325646703581649E-10    -1.2030636321903112E-10  -1.5605916340636007E-10  -2.5748564873299517E-10  -3.29404919358877E-10    -1.3830323289649896E-9
3.35E-5                   -2.6013744521464596E-10  -1.26313711113184E-10    5.693383696046614E-10    1.4456904448981478E-9    1.8931631705865157E-9    1.1630296599157634E-9    1.4779175556141717E-10   -2.812475899235117E-11   -1.968242272744465E-10   -2.7824320597515833E-10  -2.0216131458716505E-9
3.4E-5                    -2.913333627865939E-11   1.9192650230432658E-10   1.0491325749563076E-9    2.039793283033692E-9     2.521557064942721E-9     1.7658750753204378E-9    4.667819915029228E-10    1.249259009961047E-10    -1.1200814944233719E-10  -2.01133163485952E-10    -2.716627479145782E-9
3.45E-5                   2.560199647099628E-10    5.735175756807288E-10    1.5988472603562842E-9    2.6887436063029643E-9    3.1860208716022055E-9    2.4254043504031046E-9    8.335692799971171E-10    3.0457501232535644E-10   -3.570059765565695E-12   -9.635489112365519E-11   -3.447636402872961E-9
3.5E-5                    5.920723488300208E-10    1.0209072003720153E-9    2.206185739435598E-9     3.3704862069305146E-9    3.858441292955437E-9     3.122180904997157E-9     1.2454639870347063E-9    5.117616619859157E-10    1.277960768438984E-10    3.775966187585245E-11    -4.188214741202003E-9
3.5499999999999996E-5     9.749939078347168E-10    1.5314684326813487E-9    2.8498499753807306E-9    4.053896164722782E-9     4.505322444315023E-9     3.83578011262099E-9      1.6971267166059255E-9    7.426318547507138E-10    2.813530732908585E-10    2.0192485257365616E-10   -4.910082061635927E-9
3.6E-5                    1.4023628212005894E-9    2.0948680152469703E-9    3.505771521796817E-9     4.710442999740161E-9     5.093556661848713E-9     4.541253995830739E-9     2.177012548575055E-9     9.893259272645025E-10    4.5527822342101293E-10   3.955953576514448E-10    -5.5824630767260165E-9
3.65E-5                   1.8692025403961966E-9    2.69383525408031E-9      4.151455336432595E-9     5.313573765167553E-9     5.592747405527589E-9     5.206247758731371E-9     2.6677388802678457E-9    1.2441052451090854E-9    6.460649994648221E-10    6.175344401241836E-10    -6.169512457162217E-9
3.7E-5                    2.360857575564129E-9     3.306653360166151E-9     4.765049043371719E-9     5.829055718732051E-9     5.973345035977916E-9     5.793307718220377E-9     3.149618016999386E-9     1.5001037922026198E-9    8.490660277122252E-10    8.652929831496841E-10    -6.631729779120757E-9
3.75E-5                   2.8533566806289462E-9    3.90916270827311E-9      5.320856275089955E-9     6.213401791964903E-9     6.203793846798031E-9     6.263724070234381E-9     3.602761430226453E-9     1.7471383675155126E-9    1.0591918876301485E-9    1.1330239521815481E-9    -6.930194370424034E-9
3.7999999999999995E-5     3.3221894621972222E-9    4.475688166927059E-9     5.785710045386118E-9     6.423284921223518E-9     6.249023310122077E-9     6.578280120589676E-9     4.005427504780558E-9     1.9687599683329376E-9    1.270482714435311E-9     1.4102452117377083E-9    -7.0274246456802175E-9
3.85E-5                   3.747705959993992E-9     4.979057460579954E-9     6.119419000548569E-9     6.42123407719504E-9      6.071169353560666E-9     6.69607550263688E-9      4.331188070119213E-9     2.1457426477983733E-9    1.4745901379770822E-9    1.6836279825719595E-9    -6.884414837006159E-9
3.9E-5                    4.109644154483666E-9     5.38964698261723E-9      6.278941306667227E-9     6.170878062942274E-9     5.633985565138159E-9     6.575266656249916E-9     4.548818651229756E-9     2.2627271050443124E-9    1.659713001648217E-9     1.939755692232358E-9     -6.46030404719918E-9
3.95E-5                   4.378807123522657E-9     5.674165011155949E-9     6.223068434314401E-9     5.633991482438289E-9     4.9093582593310344E-9    6.176319828174214E-9     4.625547802398231E-9     2.310430667225777E-9     1.8115713716146893E-9    2.1653347874912287E-9    -5.717861804357327E-9
3.9999999999999996E-5     4.517825549764255E-9     5.796032923599707E-9     5.914731519572889E-9     4.779222156900273E-9     3.8798687625503385E-9    5.465305249822439E-9     4.530993298123575E-9     2.2814157035753786E-9    1.916126559002947E-9     2.3451214948604993E-9    -4.630092725087173E-9
4.0499999999999995E-5     4.490455647905953E-9     5.7180792688995326E-9    5.321383631589393E-9     3.5924198463891505E-9    2.535758396955012E-9     4.4157168708343515E-9    4.2394626434714135E-9    2.165279100541017E-9     1.961670376263692E-9     2.461203383910909E-9     -3.1826880857580655E-9
4.1E-5                    4.268436038149505E-9     5.405531372686322E-9     4.416470127798611E-9     2.0739890918136763E-9    8.737869796250592E-10    3.0096753408139306E-9    3.730755172388136E-9     1.9491489520417242E-9    1.938271191937622E-9     2.494999653682624E-9     -1.3731554067169949E-9
4.15E-5                   3.829833786018807E-9     4.827156544852289E-9     3.1830102482261904E-9    2.2801727952513715E-10   -1.096600706163715E-9    1.2400523614713842E-9    2.9905158978487767E-9    1.6222833375005215E-9    1.8355433972450217E-9    2.4290837022036766E-9    7.891738850766523E-10
4.2E-5                    3.15441535490045E-9      3.955653309645141E-9     1.616138092443973E-9     -1.938526567957867E-9    -3.346361923152985E-9    -8.859725008261712E-10   2.0102964075163835E-9    1.1791748185229988E-9    1.6418700219914377E-9    2.2465838184897075E-9    3.2805733444599134E-9
4.2499999999999996E-5     2.224362190263711E-9     2.770201024754165E-9     -2.7800722910312836E-10  -4.401718238526775E-9    -5.828576271517264E-9    -3.343076479541586E-9    7.874415947109419E-10    6.190534100447713E-10    1.346665924170897E-9     1.9304156798652604E-9    6.059878823456601E-9
4.2999999999999995E-5     1.030703374286591E-9     1.261336100477442E-9     -2.483841241646834E-9    -7.108227058376972E-9    -8.486565965407698E-9    -6.085956969694379E-9    -6.73841928365465E-10    -5.487116921872736E-11   9.438293592651219E-10    1.4655391711061408E-9    9.06777252456565E-9
4.35E-5                   -4.214995673337979E-10   -5.652216518909275E-10   -4.973093567950204E-9    -9.97977265092641E-9     -1.1257416365835535E-8   -9.05075278383552E-9     -2.3591026449183374E-9   -8.335088001846995E-10   4.3343155334473557E-10   8.431476643766666E-10    1.2228466915445547E-8
4.4E-5                    -2.114077065573777E-9    -2.6885246941120796E-9   -7.698178480639928E-9    -1.2928326236184394E-8   -1.4066565230944157E-8   -1.2158104542016316E-8   -4.239387024044034E-9    -1.6994082874203443E-9   -1.790395608269201E-10   6.290357025558116E-11    1.5451078353244412E-8
4.45E-5                   -4.019628713549326E-9    -5.074912659339358E-9    -1.0589861521994605E-8   -1.5863741017542806E-8   -1.6821117611939833E-8   -1.5314838019601695E-8   -6.269327312421153E-9    -2.627596951181582E-9    -8.840360033289032E-10   -8.678496529543829E-10   1.862935454768082E-8
4.4999999999999996E-5     -6.101486856487493E-9    -7.679414536705788E-9    -1.3562568932524565E-8   -1.8687481713704262E-8   -1.9410516346942884E-8   -1.8413438303829082E-8   -8.38915663318699E-9     -3.5894936990624625E-9   -1.668082967496647E-9    -1.9352061667408663E-9   2.1642522881651442E-8
4.5499999999999995E-5     -8.307994322982476E-9    -1.04438629729519E-8     -1.6521224167599257E-8   -2.1284440006807053E-8   -2.1713922427329565E-8   -2.1331543493527574E-8   -1.0528981997508445E-8   -4.555309458181761E-9    -2.5128478963590663E-9   -3.1180907241744292E-9   2.436006202938015E-8
4.6E-5                    -1.0567094063729124E-8   -1.3293277818900595E-8   -1.9362489279573152E-8   -2.352561617176341E-8    -2.3608394294000234E-8   -2.3933884444314316E-8   -1.2612322569682164E-8   -5.491947647906458E-9    -3.394665096792518E-9    -4.386934517924386E-9    2.6648267477402586E-8
4.65E-5                   -1.2788227558366319E-8   -1.6134445191265923E-8   -2.1971758180544357E-8   -2.527933203958417E-8    -2.4975727830639194E-8   -2.6076946091336914E-8   -1.4557365889340289E-8   -6.3593117643693574E-9   -4.285299076667675E-9    -5.703357178163178E-9    2.8374670895747094E-8
4.7E-5                    -1.4871076678814147E-8   -1.8858975944612684E-8   -2.422291071170883E-8    -2.6419842572705452E-8   -2.57089636133172E-8     -2.761537165210277E-8    -1.627670357300336E-8    -7.110790665965314E-9    -5.15300951711183E-9     -7.020945430460839E-9    2.941093873881594E-8
4.7499999999999996E-5     -1.6713336225481107E-8   -2.1348809985496305E-8   -2.598394460576095E-8    -2.6830263920139766E-8   -2.5716951901366493E-8   -2.840960408967028E-8    -1.7677585480987617E-8   -7.699572470639622E-9    -5.962648144463439E-9    -8.286321605579597E-9    2.9637850372916938E-8
4.8E-5                    -1.8211580249766497E-8   -2.3480309838263107E-8   -2.712508071624668E-8    -2.6406600977795026E-8   -2.4924858113081788E-8   -2.8334328445454084E-8   -1.8664421659037035E-8   -8.085843867061323E-9    -6.675188695085487E-9    -9.440044580224489E-9    2.8952338873673595E-8
4.85E-5                   -1.9258446186039216E-8   -2.5126329733267405E-8   -2.7525176207811526E-8   -2.5065655639212017E-8   -2.327362320205917E-8    -2.7285973235845113E-8   -1.9143886528154003E-8   -8.238769132919E-9       -7.24855549347575E-9     -1.0417119302626924E-8   2.7273186868796018E-8