% Model:              Untitled.mph
% Version:            COMSOL 6.0.0.405
% Date:               Jul 17 2025, 07:43
% Dimension:          1
% Nodes:              401
% Expressions:        11
% Description:        Point graph
% Time (s)                Displacement field, Y component Displacement field, Y component Displacement field, Y component Displacement field, Y component Displacement field, Y component Displacement field, Y component Displacement field, Y component Displacement field, Y component Displacement field, Y component Displacement field, Y component Displacement field, Y component
0                         -2.278385703729978E-39   -1.4241239572797903E-37  -7.286049758256807E-37   -2.3762264595166367E-36  -6.73853639734031E-36    -2.9216476471954066E-34  -3.374123362505513E-33   4.70872204331807E-33     2.5024918101253903E-33   1.603182975497937E-32    -5.94791760652438E-36
5.0E-7                    5.4419321449644175E-31   3.0482013923786864E-29   1.4464593006867257E-28   3.8271283865320283E-28   1.0657299489505136E-27   8.814204970349093E-26    1.1058015770653018E-24   -1.3024343074807408E-25  -2.93912755925532E-25    -4.190154070692271E-24   9.931246488284837E-28
1.0E-6                    -3.0760227873733397E-30  -1.3503707168227848E-28  -5.69932961051089E-28    -1.0074621205733705E-27  -2.753490999965855E-27   -2.5671518570433835E-27  -1.042330579072722E-24   -2.7068032700320273E-24  -2.0594427200987533E-25  1.2312768281040411E-23   -1.4712354425797936E-27
1.5E-6                    1.2674104060213508E-29   4.3395245672933915E-28   1.8055042530179175E-27   3.317628001170302E-27    1.2263576044890695E-26   -3.396404490292378E-24   -1.1820982139497551E-23  7.036601319463919E-24    7.371194355396279E-25    6.667909851676088E-24    -1.467781011189972E-26
2.0E-6                    -2.201600429063046E-29   -2.5259335973982954E-28  -1.0609410370465558E-27  -4.9884681969557726E-27  -5.0321437823096434E-26  1.493616845640168E-23    -3.1494321551652024E-23  -1.2515336152771293E-23  7.868598751577654E-24    -1.051298577466347E-22   1.7748653720774913E-25
2.4999999999999998E-6     -3.836876244813566E-29   -4.130795314108942E-27   -2.0534265851436203E-26  -2.25873675402867E-26    6.439631012710211E-26    1.2407661300920179E-23   4.0874235035661533E-22   2.9771751289964756E-23   -4.183732984332347E-24   -3.121192393291617E-23   -4.896089313503942E-25
3.0E-6                    3.325135883710428E-28    1.9624888928338493E-26   1.0266935798400048E-25   1.5683195943691865E-25   4.3721619747185775E-25   -1.4524605929667562E-22  2.5032392528863523E-22   7.178635916826448E-23    -1.3898387858421988E-22  6.099017752531905E-22    -1.2652539454597332E-24
3.5E-6                    -6.93048341822916E-28    -3.2464232085589904E-26  -1.9486656269766786E-25  -3.911606228546498E-25   -2.1464492212845485E-24  -1.910740228986044E-23   -4.505479033183507E-21   1.1046401188608843E-21   2.398714234765342E-22    2.1056060678844613E-21   8.78584070946819E-24
4.0E-6                    -8.238648116051073E-28   -4.2376874047955267E-26  -1.1797069453019025E-25  6.324869989748524E-26    1.1422853787477878E-24   1.1351505590266763E-21   -9.331476091796815E-22   -2.4953851092204224E-21  7.341329370403771E-22    -4.011170811482167E-21   -1.1640787560815612E-24
4.5E-6                    5.213923712515722E-27    2.5618066999166893E-25   1.6180462959458998E-24   2.4348997192759654E-24   1.33111142969632E-23     2.1708376794822505E-22   3.92671884160303E-20     -7.873893642688913E-21   -5.698123498444299E-22   -1.746213109810613E-20   -7.311785806000625E-23
4.9999999999999996E-6     -2.31554000318447E-28    -2.9626091026784667E-25  -3.678180908695124E-24   -5.692652060812627E-24   -2.2135862654559754E-23  -6.417719580350368E-21   2.2139552718875917E-20   2.971372353185913E-20    -6.2598258778524284E-21  -2.1492151224114396E-21  6.335507357470364E-23
5.5E-6                    -1.996581359938437E-26   -4.4433705899872525E-25  -2.877707878705652E-24   -3.549736089066382E-24   -5.898467295609163E-23   2.660039568630853E-22    -2.1327121385232827E-19  8.139700998988956E-20    4.871050096891524E-21    1.5255268699829007E-19   4.765526923563215E-22
6.0E-6                    3.917584426652417E-27    2.5984137651195473E-24   3.170876397852921E-23    3.451998003863537E-23    1.256471939173368E-22    4.180704900109689E-20    -4.779830337191604E-21   -2.328511135202E-20      6.195235672182829E-20    2.739892921191908E-19    -5.7822441213513975E-22
6.5E-6                    3.551287691274336E-26    -2.7651966747138585E-24  -2.4795289530811512E-23  -3.154441412634452E-23   2.5707181441403662E-22   2.5730269800885612E-20   1.5823118731194849E-18   -1.4351627620881984E-19  -1.5028973552089074E-20  -6.624471108395539E-19   -3.440658012334902E-21
7.0E-6                    -1.9398084499855549E-26  -1.3355929587727845E-23  -1.6175843933152344E-22  -1.0920230401392382E-22  -3.9485405603529807E-22  -1.4441549981763155E-19  1.2868509829607324E-18   7.286086486072302E-19    -2.5314552453257263E-19  -1.7110531310597855E-18  1.2166148510397798E-21
7.499999999999999E-6      1.2692592504682494E-25   2.257553479898092E-23    2.445285440980169E-22    3.362256960324101E-22    -1.0322378180103186E-21  -2.0080995595127113E-20  -4.5095308496613516E-18  3.3551785772478978E-18   4.770448220170125E-19    3.0963943993772096E-18   1.651048919762943E-20
8.0E-6                    1.9697108125410866E-25   6.532906122055047E-23    6.037893428190894E-22    1.8025825896941451E-22   8.363281580453967E-22    9.737224720904633E-19    1.151616351055942E-18    4.442721779139886E-18    2.0967835191713294E-18   1.3819289851317823E-17   -6.414289690369688E-21
8.5E-6                    -1.552063376488915E-24   -7.024434816962933E-23   -1.4208236810349852E-21  -1.9310950110544376E-21  5.893012736441992E-21    1.4187567794699331E-18   4.467936082664124E-17    1.1788554887059565E-18   9.32838883731209E-19     1.1842546212948942E-17   -1.1426593989440854E-19
9.0E-6                    -1.904683317427024E-24   -3.3028840703826125E-22  -2.007167274651717E-21   1.1623361681351017E-21   9.306274832734712E-21    -7.662755816906352E-19   8.548425584902211E-17    1.8859841956229603E-17   2.5150028001504688E-18   -1.1511085038592824E-17  -1.5211177861993516E-19
9.499999999999999E-6      6.452148268334895E-24    -1.322609700286688E-22   6.052474686260505E-21    1.304029261020145E-20    4.642037048892244E-21    -6.38261898834652E-19    4.3655178419108653E-17   1.0970143943759604E-16   2.857106394475235E-17    1.3172601782439656E-17   5.60420033509456E-20
9.999999999999999E-6      3.6396612191617145E-24   1.299560591632919E-21    4.7471831941538784E-21   9.546909827271983E-22    1.980489988739403E-20    1.2592342920347444E-17   9.589055704448807E-17    2.4709087477970643E-16   7.792180371529302E-17    2.553457351763337E-16    -1.9467852463871345E-19
1.05E-5                   -3.4598821629606573E-23  2.450843543730123E-21    -2.6398598090748344E-20  -3.962719577817083E-20   1.6289970395365598E-19   3.449092614408552E-17    7.929841818281471E-16    3.219549234047906E-16    1.5198935086884674E-16   8.36496599523137E-16     -2.5129108243622857E-18
1.1E-5                    -1.678653964270967E-23   -4.478795557243275E-21   -1.3957452391074527E-20  5.403880979619433E-20    5.997392356920441E-19    4.3255179239559034E-17   2.372517318502328E-15    6.107945757810841E-16    4.731650614685841E-16    1.608387667695649E-15    -7.290883781444073E-18
1.15E-5                   9.167251918673574E-23    -1.9216893692456565E-20  1.0132404925060938E-19   3.831035185277755E-19    1.6373095430573122E-18   5.384744436216958E-17    4.28934887903484E-15     2.1922370635652376E-15   1.5394268425243202E-15   2.759013901518418E-15    -1.467947949111131E-17
1.2E-5                    -1.4570720954046147E-22  1.4244553081345442E-21   3.356069027158998E-20    4.957835747144563E-19    4.2807219717151934E-18   1.369084738428032E-16    7.20180902929214E-15     6.000936053156206E-15    3.843001660704875E-15    7.240094978875758E-15    -3.646149047055088E-17
1.2499999999999999E-5     -7.064102964934336E-22   8.445095417751888E-20    -4.2869063799783862E-19  3.1564281935894414E-19   1.1689243946677323E-17   2.9740647082841457E-16   1.6229676596452147E-14   1.1587217343047977E-14   8.849087442366584E-15    2.26107378976147E-14     -1.132174087248364E-16
1.3E-5                    2.1414966134969943E-22   4.8143941752882663E-20   -1.638413697952817E-19   2.6090161686442378E-18   3.373184231818621E-17    4.563358689610955E-16    3.9937776410172167E-14   2.0124120214990787E-14   2.258368668714303E-14    5.782964937983259E-14    -3.2588809254866898E-16
1.35E-5                   1.795074394719272E-21    -3.3455521680375013E-19  2.0600707166945768E-18   1.1685693759217643E-17   9.75359351898318E-17     8.598461315694804E-16    8.39564659813111E-14     4.180223437275881E-14    5.88135703033952E-14     1.2311991084902071E-13   -8.386071373812647E-16
1.4E-5                    -3.948383712279279E-21   -5.0297602812892695E-19  2.8881338347424665E-18   2.7294129307631212E-17   2.638660345116111E-16    2.2787469768530674E-15   1.4805773209416077E-13   9.65180992948565E-14     1.4040820147818799E-13   2.559800049009213E-13    -2.0824504864795142E-15
1.45E-5                   -1.2739926198839429E-20  7.281585744279236E-19    -2.7425840780946347E-18  5.323153314200776E-17    6.691679397870805E-16    5.005626806016701E-15    2.3598217256857626E-13   2.0200659291374735E-13   3.1154371168178385E-13   5.688177631944743E-13    -5.178957574574072E-15
1.4999999999999999E-5     1.3435586204992209E-20   2.3395036960799276E-18   -3.0397755378089736E-18  1.3750328957152075E-16   1.6722951886253295E-15   8.532481267752926E-15    3.7673859919856626E-13   3.751598559102252E-13    6.765102217332121E-13    1.2666114365719086E-12   -1.265608379413619E-14
1.55E-5                   7.618653158806453E-20    1.3561763561183178E-19   3.3819257683429116E-17   4.013511736316865E-16    4.188070399190278E-15    1.6753893472991625E-14   6.353585060693954E-13    6.780194191008036E-13    1.4510359577354879E-12   2.6331312868226563E-12   -2.9801397496296513E-14
1.6E-5                    4.310401000039953E-20    -5.711610548304513E-18   1.0767736139636344E-16   1.0090663936501617E-15   1.0211255061404216E-14   4.889456166231024E-14    1.0613265360456522E-12   1.2712763907409E-12      2.9883376444014857E-12   5.098594361716572E-12    -6.776426065446291E-14
1.6499999999999998E-5     -1.0794574618868105E-19  -3.6212692574588094E-18  1.5425400617676288E-16   2.230547077026974E-15    2.3769005986540757E-14   1.4526530992602814E-13   1.5637050425064448E-12   2.399792050284076E-12    5.779446797127596E-12    9.42306456450421E-12     -1.4981241272689338E-13
1.7E-5                    2.6332342154231614E-19   1.7168518535767625E-17   1.9899709643521745E-16   4.902312377122474E-15    5.33088366361274E-14     3.529507821466949E-13    1.8945093370418253E-12   4.3785728263003405E-12   1.0471044469514623E-11   1.6749512771371887E-11   -3.2082971915716213E-13
1.75E-5                   2.1314249559056723E-18   4.940628954309445E-17    6.057482301705677E-16    1.1200233571768255E-14   1.166305165398902E-13    6.928710518916715E-13    2.012397881434904E-12    7.763001029295419E-12    1.785571647713572E-11    2.8206484113867432E-11   -6.582442454736328E-13
1.8E-5                    5.0949440419986655E-18   8.607482300622633E-17    1.965873204111409E-15    2.521567636722815E-14    2.4772698663419405E-13   1.1500280951524979E-12   2.65412806973608E-12     1.3521624541721526E-11   2.8601629296806563E-11   4.402746883593273E-11    -1.282289929993523E-12
1.85E-5                   7.800962121606742E-18    1.5434627651892008E-16   4.642399950728269E-15    5.382633040301377E-14    5.041432469008218E-13    1.7640121228538004E-12   5.312184179319097E-12    2.2529686779043317E-11   4.256131173444445E-11    6.254659834362879E-11    -2.3628931293896993E-12
1.8999999999999998E-5     1.519170934719584E-17    3.1961458067314437E-16   9.117665996938966E-15    1.0999001767289234E-13   9.776364963110744E-13    2.835205267977092E-12    1.1169417081997558E-11   3.432138660705588E-11    5.810443872808437E-11    7.988006815544997E-11    -4.113396712333234E-12
1.95E-5                   4.8105720682026515E-17   7.866508281456299E-16    1.7890448169871696E-14   2.1942055785242187E-13   1.813009151651451E-12    5.054017882199875E-12    1.9921458399189866E-11   4.663854199588987E-11    7.243905992613661E-11    9.12123106979021E-11     -6.74791642497497E-12
1.9999999999999998E-5     1.421040284308005E-16    2.2516800370477065E-15   3.729908864696652E-14    4.2840346733365874E-13   3.2244684699207106E-12   9.223136136078588E-12    2.9899417113104174E-11   5.715414943283103E-11    8.308499206080235E-11    9.318703891873603E-11    -1.0375333955704066E-11
2.05E-5                   3.39708041568488E-16     6.095993386374356E-15    7.775314938925868E-14    8.119320950034389E-13    5.47247792765708E-12     1.5543439979643745E-11   3.9373887935935014E-11   6.562086848644682E-11    8.886575854115493E-11    8.4805977434769E-11      -1.483487662398344E-11
2.1E-5                    7.184543744370409E-16    1.3798740493957224E-14   1.5549902788453994E-13   1.4860931144368337E-12   8.766329280279172E-12    2.305759013975181E-11    4.738486700859761E-11    7.296315283717508E-11    8.880963406662486E-11    6.545500146456216E-11    -1.9552899536820804E-11
2.1499999999999997E-5     1.5020327951379424E-15   2.668726784920535E-14    3.001098563964907E-13    2.622123272157537E-12    1.3107226156653743E-11   2.998093384902445E-11    5.32115682994355E-11     7.778805659506004E-11    8.043220317377406E-11    3.341574742528977E-11    -2.3560637410818466E-11
2.2E-5                    3.2490243091303393E-15   4.912661971368542E-14    5.641648915070066E-13    4.438355061746556E-12    1.8139877434079068E-11   3.480549326935012E-11    5.553267226798884E-11    7.555803621019371E-11    6.063782958084406E-11    -1.1192188835827003E-11  -2.5749146210433962E-11
2.2499999999999998E-5     7.088659367659439E-15    9.53634487329067E-14     1.0293676248276295E-12   7.1350455405022405E-12   2.309005738928371E-11    3.708268656843263E-11    5.264867846585408E-11    6.260347043412207E-11    2.868367273025291E-11    -6.237717088734459E-11   -2.5237715563476365E-11
2.3E-5                    1.507210560783208E-14    1.9300404931020198E-13   1.8159357140107052E-12   1.0762162729994083E-11   2.6839571233159738E-11   3.700985164477366E-11    4.362690863434991E-11    3.9432799551327646E-11   -1.351620652429834E-11   -1.1094319882341069E-10  -2.1602059625521477E-11
2.35E-5                   3.0863537083882106E-14   3.7645593084182587E-13   3.0986508330785153E-12   1.5068110339889994E-11   2.814449185789172E-11    3.430074870522983E-11    2.8983464003357516E-11   8.216552107018243E-12    -6.474037140323358E-11   -1.5340918115588304E-10  -1.4853247539378395E-11
2.4E-5                    6.10713920992612E-14     6.801989242078023E-13    5.0892467763349355E-12   1.9430317573833072E-11   2.594138756162203E-11    2.7697048293083556E-11   9.8410935425963E-12      -3.147681467270343E-11   -1.2586525211654016E-10  -1.96473587072911E-10    -5.303517480925859E-12
2.45E-5                   1.1758258218523132E-13   1.1569664103694027E-12   7.924870349999232E-12    2.2950842380151123E-11   1.9660649471465167E-11   1.5744221192930293E-11   -1.3937935172419286E-11  -8.183838750834699E-11   -1.9697098792838983E-10  -2.5089350995484284E-10  6.5748489190315605E-12
2.4999999999999998E-5     2.2134890661804106E-13   1.9253947422247273E-12   1.1488333885074158E-11   2.468148133363326E-11    9.475609335332966E-12    -2.0590666854431053E-12  -4.4701971947369715E-11  -1.429221457926522E-10   -2.7645059765537025E-10  -3.222312615077929E-10   2.0407119727002793E-11
2.55E-5                   4.0758007927310176E-13   3.1946223139170877E-12   1.530064702183944E-11    2.3841273274859144E-11   -3.688775030776178E-12   -2.5101499707863188E-11  -8.559899312799184E-11   -2.1281930082191142E-10  -3.6499477709175414E-10  -4.083014883917547E-10   3.62862459413507E-11
2.6E-5                    7.304970873142152E-13    5.18414512726358E-12     1.8589868474823894E-11   1.996963485496954E-11    -1.86988418588469E-11    -5.2626727444351035E-11  -1.3788688473605378E-10  -2.9109500654161443E-10  -4.658143116389428E-10   -5.027541120195228E-10   5.4843265446057106E-11
2.65E-5                   1.263568015360849E-12    7.928249402014415E-12    2.0476225370215244E-11   1.3089959275051864E-11   -3.5237070319438E-11     -8.445835413876388E-11   -1.99556104416128E-10    -3.783406304291519E-10   -5.765706100761306E-10   -5.982003458382925E-10   7.667856705745038E-11
2.7E-5                    2.0904102740152446E-12   1.1093608442972249E-11   2.0167903582377752E-11   3.792539039178168E-12    -5.434487017364746E-11   -1.2034878616430791E-10  -2.6615362677260884E-10  -4.719491001598738E-10   -6.851727487281021E-10   -6.866480199498912E-10   1.015726752714336E-10
2.7499999999999998E-5     3.2816446430927313E-12   1.3994230447650566E-11   1.7176159269376283E-11   -7.1628069261080594E-12  -7.746496373832225E-11   -1.5880128639873757E-10  -3.324269650734643E-10   -5.657792393755826E-10   -7.790853233776266E-10   -7.593927695089327E-10   1.2832218155541786E-10
2.8E-5                    4.852004056181852E-12    1.5851052488551658E-11   1.1539069458725481E-11   -1.9816993926276784E-11  -1.0460962228340462E-10  -1.973457916088749E-10   -3.9382752558568933E-10  -6.549836076774474E-10   -8.553635161711617E-10   -8.078333900147629E-10   1.5538518218997256E-10
2.8499999999999998E-5     6.69679021184154E-12     1.6119995882255282E-11   3.8192861161560775E-12   -3.566299056193219E-11   -1.33736713523757E-10    -2.3449721175924514E-10  -4.481160284866484E-10   -7.382707945961698E-10   -9.157798598670092E-10   -8.25394597453383E-10    1.8157992838285472E-10
2.9E-5                    8.532579601937876E-12    1.46402196790256E-11     -5.3438192416672124E-12  -5.679809669933816E-11   -1.6220383858712328E-10  -2.708863275612351E-10   -4.961511530693897E-10   -8.141508939807983E-10   -9.55930120723241E-10    -8.096304058968228E-10   2.0608830492352933E-10
2.95E-5                   9.907447387157272E-12    1.1518099637817965E-11   -1.585253355743876E-11   -8.383882103180428E-11   -1.8855209591194622E-10  -3.073376648498284E-10   -5.397855167513978E-10   -8.770400204467623E-10   -9.658645441439707E-10   -7.615308792064636E-10   2.2785872468324502E-10
2.9999999999999997E-5     1.034668177318926E-11    6.8840272167119836E-12   -2.82823097304829E-11    -1.146445255160534E-10   -2.126099363531071E-10   -3.414331443762499E-10   -5.775018217938196E-10   -9.177211420094181E-10   -9.3751146557073E-10     -6.806633797034117E-10   2.4507550297362865E-10
3.05E-5                   9.604489111552375E-12    7.244901992604118E-13    -4.327958081899128E-11   -1.455294508050273E-10   -2.343023345358477E-10   -3.6669212837531877E-10  -6.021189867539776E-10   -9.254215707796363E-10   -8.634800549366917E-10   -5.606262364795435E-10   2.5513723462019697E-10
3.1E-5                    7.843558885689068E-12    -7.114930057133575E-12   -6.081433999367172E-11   -1.7403579439044645E-10  -2.527952635041031E-10   -3.7599641766175244E-10  -6.034660183832486E-10   -8.888875137078085E-10   -7.317238943490261E-10   -3.901549667751856E-10   2.5503308160263004E-10
3.15E-5                   5.5246712851797225E-12   -1.68066870764614E-11    -8.008134244907108E-11   -2.0042998227412484E-10  -2.661657725078931E-10   -3.6586022225341345E-10  -5.73330635417083E-10    -7.98077433990724E-10    -5.302613814580529E-10   -1.5847098255087332E-10  2.4177828321778956E-10
3.2E-5                    2.9819251125393807E-12   -2.841830712278577E-11   -1.0013273787500845E-10  -2.2627288794099085E-10  -2.7081339289318194E-10  -3.368916214581354E-10   -5.076072709026224E-10   -6.465054194739325E-10   -2.557377229881666E-10   1.4034341374896017E-10   2.1277841723072078E-10
3.25E-5                   -2.5604651970501122E-14  -4.18542288776269E-11    -1.2055497388504723E-10  -2.5147283404521776E-10  -2.6124599581176455E-10  -2.901230541234391E-10   -4.0431018573884126E-10  -4.30796739102151E-10    9.02994918894009E-11     5.05620348032591E-10     1.6615520243248366E-10
3.2999999999999996E-5     -4.373824793754644E-12   -5.6814683798331413E-11  -1.4150181541330412E-10  -2.7272128587544717E-10  -2.317308982925501E-10   -2.2351170352014838E-10  -2.607624623825562E-10   -1.472092100988898E-10   5.11438881658702E-10     9.304193277933291E-10    1.0083680302077107E-10
3.35E-5                   -1.1105849472102939E-11  -7.273463244800043E-11   -1.6302876824760906E-10  -2.846080214645967E-10   -1.7910009519533668E-10  -1.3227177214824378E-10  -7.335392333374125E-11   2.0998320012736316E-10   1.0135748121021107E-9    1.4046360616456823E-9    1.610155218917473E-11
3.4E-5                    -2.075642562776087E-11   -8.884310711724452E-11   -1.842604711243167E-10   -2.820607686428932E-10   -1.0370149083049926E-10  -1.2096827283309175E-11  1.6033679416427916E-10   6.453122743328712E-10    1.5915397766300818E-9    1.9190928229241802E-9    -8.909723998635531E-11
3.45E-5                   -3.297157892512151E-11   -1.045034087662409E-10   -2.030489274908055E-10   -2.619312286269155E-10   -7.1448914048133546E-12  1.3830874612913755E-10   4.3983122297462216E-10   1.1572265924091694E-9    2.2257670830732288E-9    2.4644982456085397E-9    -2.1598947506831848E-10
3.5E-5                    -4.6645960139994886E-11  -1.1959109521213795E-10  -2.1644160971890143E-10  -2.2285442553465804E-10  1.1057852015092852E-10   3.171243147050963E-10    7.62180441372783E-10     1.735956116258068E-9     2.893224196682644E-9     3.0242242232301328E-9    -3.6456455997928737E-10
3.5499999999999996E-5     -6.040286268051662E-11   -1.3430054259152193E-10  -2.2165371050695474E-10  -1.6401071071142818E-10  2.5119172818181596E-10   5.205242919857911E-10    1.123335004465819E-9     2.3651598813106863E-9    3.575631590241767E-9     3.570032370035451E-9     -5.319351694020588E-10
3.6E-5                    -7.314496839871641E-11   -1.4822608642832737E-10  -2.167314787231025E-10   -8.3885334566205E-11     4.1545589215285146E-10   7.434027899697561E-10    1.5180702929530873E-9    3.025462174327994E-9     4.2553147980540114E-9    4.068106920428258E-9     -7.121024444399858E-10
3.65E-5                   -8.450509501220559E-11   -1.5960243283152176E-10  -2.0026906460560126E-10  2.0092416552784293E-11   6.008053552769868E-10    9.795265192231178E-10    1.9379931360865247E-9    3.697092058623323E-9     4.9072187322097976E-9    4.4890896764013115E-9    -8.974688435826503E-10
3.7E-5                    -9.49572229163795E-11    -1.6579960986494736E-10  -1.7046613540830737E-10  1.5064926002168046E-10   8.014586337950752E-10    1.2215376226948465E-9    2.3696030937183763E-9    4.359212319312781E-9     5.4958626733308534E-9    4.810145070173575E-9     -1.0807557872820877E-9
3.75E-5                   -1.0526255686503975E-10  -1.6485356159900477E-10  -1.2459340145796082E-10  3.089618037855746E-10    1.0101464326994443E-9    1.4607660221747403E-9    2.794236501172127E-9     4.985907022015985E-9     5.976344622412248E-9     5.00766451017145E-9      -1.2555442218418568E-9
3.7999999999999995E-5     -1.1537581898790034E-10  -1.5639114046681424E-10  -5.958902852999825E-11   4.93281543749697E-10     1.2192712223480557E-9    1.6867412342862256E-9    3.1895585794358895E-9    5.542183072580132E-9     6.297889922518032E-9     5.050714251925508E-9     -1.4148420568149654E-9
3.85E-5                   -1.2372519763025376E-10  -1.4073888764423502E-10  2.664070172324468E-11    6.98832475394173E-10     1.4204758174668159E-9    1.886794637868276E-9     3.5312056532021106E-9    5.9839060350044445E-9    6.411349869413138E-9     4.903200852656527E-9     -1.5490201588331463E-9
3.9E-5                    -1.2775844530646815E-10  -1.1704436689253925E-10  1.342519762370264E-10    9.189962038978593E-10    1.6034311368291008E-9    2.0462475937311436E-9    3.794037812127797E-9     6.262443705398512E-9     6.277355807958562E-9     4.532074848480079E-9     -1.645347967784169E-9
3.95E-5                   -1.2538430411924487E-10  -8.246705341806133E-11   2.613843555621467E-10    1.1468123027355051E-9    1.7554566656508168E-9    2.149296220107243E-9     3.953149455913407E-9     6.331499706829337E-9     5.867548344906033E-9     3.913521237201014E-9     -1.6898301482054058E-9
3.9999999999999996E-5     -1.1584169287251311E-10  -3.339156675004637E-11   4.048370935709892E-10    1.3753220622032744E-9    1.8626540177838124E-9    2.18042204766333E-9      3.984438342359695E-9     6.152552609454524E-9     5.157756609361508E-9     3.033398155155503E-9     -1.6695097979570152E-9
4.0499999999999995E-5     -9.916060788674994E-11   3.246969166320966E-11    5.611611860075237E-10    1.596035394034705E-9     1.9113278541921894E-9    2.1259340679997843E-9    3.864681590321156E-9     5.6958696739454634E-9    4.121689949690602E-9     1.8851156557812927E-9    -1.573148338066102E-9
4.1E-5                    -7.504700827719302E-11   1.1488316154761762E-10   7.276671119891624E-10    1.796877331150494E-9     1.8880106030999476E-9    1.974934710176219E-9     3.572002742035122E-9     4.936500113784596E-9     2.733851909019912E-9     4.697127286546305E-10    -1.390657307218334E-9
4.15E-5                   -4.252099639233301E-11   2.114292749857431E-10    9.024564162371939E-10    1.9621073843440352E-9    1.7785317064062092E-9    1.7192007408678459E-9    3.087373387526562E-9     3.849334751528899E-9     9.810428335707046E-10    -1.2009919348036073E-9   -1.1132854782119835E-9
4.2E-5                    -4.061632961164484E-13   3.186695224559808E-10    1.0828697960251752E-9    2.074637169832434E-9     1.568452031456546E-9     1.3523721595159284E-9    2.3961448562895102E-9    2.4101409613754316E-9    -1.1269304402763193E-9   -3.1006549702833177E-9   -7.351373624998759E-10
4.2499999999999996E-5     5.2278879778385395E-11   4.333003906589099E-10    1.2631956167391118E-9    2.118114210243794E-9     1.2457474625493748E-9    8.694228122830956E-10    1.4883992520653371E-9    6.051399204088419E-10    -3.5560353153466164E-9   -5.186260576964725E-9    -2.545870387031072E-10
4.2999999999999995E-5     1.1638064190768176E-10   5.529273116707926E-10    1.4335861539297612E-9    2.076717288763996E-9     8.03715767118706E-10     2.671002182731059E-10    3.592513295781969E-10    -1.5571934606856188E-9   -6.254824110208874E-9    -7.398511393339356E-9    3.254715329708444E-10
4.35E-5                   1.9241630044433612E-10   6.761954328454576E-10    1.5811265734000998E-9    1.9343800141639444E-9    2.4173068143746214E-10   -4.5424105350134774E-10  -9.883794017348822E-10   -4.041885246930676E-9    -9.15929976914377E-9     -9.665369749717025E-9    9.97819180868799E-10
4.4E-5                    2.7973623475946574E-10   8.019474088654203E-10    1.6917998681078785E-9    1.6763417731624511E-9    -4.362547022274339E-10   -1.2870565192950416E-9   -2.5386266907256896E-9   -6.7935675037454355E-9   -1.219028795949569E-8    -1.1907822310179418E-8   1.750413493817179E-9
4.45E-5                   3.7588529350191693E-10   9.276134779886003E-10    1.751500778573772E-9     1.2924094867424237E-9    -1.223577111443707E-9    -2.2122969164226666E-9   -4.259020291177281E-9    -9.74550611386764E-9     -1.5249310957307835E-8   -1.404407819314015E-8    2.565310260569853E-9
4.4999999999999996E-5     4.771029663047357E-10    1.047870465567998E-9     1.7460650072472433E-9    7.784319170771004E-10    -2.1107695607739977E-9   -3.1978545788215975E-9   -6.101713869876484E-9    -1.2821937596716039E-8   -1.8220539730779753E-8   -1.5988707295906534E-8   3.4181405154346188E-9
4.5499999999999995E-5     5.795031301443576E-10    1.1545668628151441E-9    1.6619000010836724E-9    1.3471759815994137E-10   -3.082215166528714E-9    -4.2030269561993795E-9   -8.008351099894646E-9    -1.593220359216178E-8    -2.0976478284173736E-8   -1.764840720556098E-8    4.2788550940460085E-9
4.6E-5                    6.795478770485711E-10    1.2378100242595213E-9    1.487827370310671E-9     -6.358886128223535E-10   -4.111260300440423E-9    -5.186998269785167E-9    -9.914156555547328E-9    -1.8964398488639836E-8   -2.3380743976689098E-8   -1.8920680236225887E-8   5.113148632805862E-9
4.65E-5                   7.733467634244518E-10    1.2872343837854438E-9    1.2165464314896796E-9    -1.5274844087314604E-9   -5.15842988794374E-9     -6.1138887152892676E-9   -1.174871482297913E-8    -2.1786521547828698E-8   -2.5289204138399507E-8   -1.969996159838489E-8    5.883307346583524E-9
4.7E-5                    8.558200438918816E-10    1.2928143692918031E-9    8.440618378771809E-10    -2.528629907415026E-9    -6.175687138699222E-9    -6.948902130856063E-9    -1.3434949273244997E-8   -2.4254853783967695E-8   -2.6555895881161515E-8   -1.9889271499468483E-8   6.548139571322112E-9
4.7499999999999996E-5     9.208348432553796E-10    1.2454701305598518E-9    3.6794769129578557E-10   -3.6200856666708867E-9   -7.1135901520685604E-9   -7.649304181463889E-9    -1.4889402660753434E-8   -2.6222643038188713E-8   -2.7043543508164824E-8   -1.941089376943782E-8    7.063259734975796E-9
4.8E-5                    9.620867105641595E-10    1.1378422491920956E-9    -2.1292166056986137E-10  -4.773683521330281E-9    -7.924957380321629E-9    -8.160499196452845E-9    -1.6025393959400115E-8   -2.7544651831047087E-8   -2.6632434387043317E-8   -1.821098875534362E-8    7.383208775953001E-9
4.85E-5                   9.736220230671546E-10    9.649474976798894E-10    -8.961389816761518E-10   -5.952030364249022E-9    -8.562728950907039E-9    -8.42328440373881E-9     -1.6758380372330996E-8   -2.8080303166838182E-8   -2.5225728725037587E-8   -1.6258580535686246E-8   7.465093127605643E-9