% Model:              Untitled.mph
% Version:            COMSOL 6.0.0.405
% Date:               Jul 15 2025, 16:53
% Dimension:          1
% Nodes:              401
% Expressions:        11
% Description:        Point graph
% Time (s)                Displacement field, Y component Displacement field, Y component Displacement field, Y component Displacement field, Y component Displacement field, Y component Displacement field, Y component Displacement field, Y component Displacement field, Y component Displacement field, Y component Displacement field, Y component Displacement field, Y component
0                         -2.2734570808689022E-35  4.464621532794776E-31    6.646120227848079E-31    3.4120418023238874E-31   4.735433475299553E-31    1.76423008707218E-31     5.140605612917806E-32    2.254326863361295E-32    8.42479687628784E-33     1.5548658991528525E-33   2.6293473046961365E-34
5.0E-7                    4.3176351382064323E-26   -6.406195788825844E-23   -9.615429704409801E-23   -4.7359436901440226E-23  -7.09372148174226E-23    -1.1180335066064259E-23  5.130842683558162E-24    -7.787226067093523E-25   -2.187262426657383E-25   -2.4153358341142585E-25  -1.2200315641699056E-25
1.0E-6                    -2.8409746427698776E-26  7.987898565896857E-23    1.079395011620598E-22    4.745323007823055E-23    8.207154788298067E-23    -5.393423875505958E-23   -4.527965744194266E-23   -1.0937849358463532E-23  -5.9682942905016866E-24  -9.497703939023483E-25   -9.028588414156596E-25
1.5E-6                    -7.0647860881623185E-25  -4.464610432921114E-24   -1.0205927863224471E-22  -4.178299578796825E-23   1.3796688300894179E-22   2.8827967740344614E-22   8.15088577444723E-23     6.271698655267378E-23    5.338093560017279E-23    8.025086274559893E-24    4.7519452567090395E-24
2.0E-6                    4.469353050932645E-25    -1.5525306523998101E-22  4.435736949794144E-22    4.440673201351051E-22    -7.409532849424281E-22   -4.274974611722478E-22   -4.679431208608759E-23   -1.1354038372950064E-22  -1.295675895299199E-22   -7.365365683400854E-24   1.2275857555684111E-23
2.4999999999999998E-6     4.54803273197072E-24     -5.127357770743309E-23   1.2977716309975663E-21   -3.3499092025110057E-22  3.1767373967710838E-22   -1.3379046311077218E-21  -3.474433712256999E-22   -3.213405352515954E-22   -2.908977501839625E-22   -3.945509053462924E-23   -5.1488521618504204E-23
3.0E-6                    -1.5265206630336845E-24  -8.09821128270349E-22    -6.3258311970896465E-21  -4.5957280325362566E-21  8.661366502158592E-21    9.530004889768944E-21    2.3947746184162213E-21   1.348734197350987E-21    1.7981125374071086E-21   7.741861951864895E-23    -1.2408283453529572E-22
3.5E-6                    -1.2712576226481013E-23  1.1337590996052984E-20   -2.9838239131506095E-21  9.445508698600598E-21    -1.802205851297725E-20   -7.478497155109976E-21   -2.3707599082378215E-21  3.1495806940466285E-22   5.867341718281558E-23    -4.7366623454932303E-23  3.2827185696435774E-22
4.0E-6                    -8.789452626061156E-24   -2.3471086462761844E-20  1.875011803001738E-20    3.815746591419205E-20    -3.0529564515361087E-20  -6.115910464041762E-20   -1.0353274071872352E-20  -4.625894536531741E-21   -1.1124028272330274E-20  -1.995545726797527E-22   9.74794040267615E-22
4.5E-6                    -3.3793144264835245E-23  -3.2816267041862063E-21  1.2922910968978376E-19   -3.066788152543792E-20   2.172063882286022E-19    1.1869330427417247E-19   2.8312151959109545E-20   -1.384584071144887E-21   4.501992762573468E-21    1.6732835750135325E-21   -1.3945277932552647E-21
4.9999999999999996E-6     9.623792482847966E-23    4.7370820927263154E-20   2.040516051486915E-20    -2.3723494943488465E-19  1.28785945096748E-20     2.5496427942034975E-19   2.10866526386527E-20     1.397310965636894E-21    4.4647020800802304E-20   2.0557460243727606E-22   -5.902284824784959E-21
5.5E-6                    5.811378709708305E-22    -1.0278271293458395E-19  -3.9023152293599825E-19  5.724813086720485E-19    -6.621629175897113E-19   -4.965927254098596E-19   -7.130542431837651E-20   4.85957972555872E-20     -2.999430190794113E-21   -1.081828671179659E-20   3.733282018507813E-21
6.0E-6                    -2.1953586164879647E-22  5.100985871213218E-19    2.206952009165946E-19    1.9527641529575276E-18   1.1097582808310096E-18   -6.453083958805217E-19   6.015179886656343E-20    4.7391501502004344E-20   -1.2384590812320404E-19  -7.152221902236442E-21   2.7476505459726113E-20
6.5E-6                    -3.751881262262536E-21   8.039211370001569E-19    3.5225470337348074E-18   -1.123993658662745E-18   4.122485175798645E-18    2.0441469364380945E-18   2.885386751804511E-19    -3.3276844446867077E-19  -1.2391001207121833E-19  4.104533423299758E-20    -1.4513489163575045E-21
7.0E-6                    -2.3177813782453394E-21  -2.9942497598598074E-18  1.0616352002424549E-17   -1.4729891364734346E-18  3.909273798657511E-18    3.706422917535889E-18    3.918703902860741E-19    -1.9333931364900647E-19  1.806091668595743E-19    8.257083135612547E-20    -9.823548122015114E-20
7.499999999999999E-6      1.5011989146181445E-20   -1.1981905062601926E-18  1.4131904854214844E-17   2.238265498401956E-17    7.403301956659297E-18    -4.062459403353952E-19   9.962876726179235E-19    1.662586314360949E-18    9.44460952993524E-19     -5.075690726966E-20      -4.030782624667486E-20
8.0E-6                    2.514251113856337E-20    2.2152444640875763E-17   1.4748474843271392E-17   5.588491606795693E-17    3.5480868225451455E-17   8.583422086222424E-19    2.4937521156094886E-18   1.555980051019669E-18    8.998636854674261E-19    -4.2769609152186216E-19  2.705988682763905E-19
8.5E-6                    -3.286303282260167E-20   3.572975309369476E-17    1.0411528127022007E-16   7.325480407428516E-17    1.2347851549013854E-16   2.9748283502986725E-17   8.346857426874928E-18    -4.354667791890501E-18   -3.0165483733935026E-18  -4.044548430842665E-19   2.2190784996397302E-19
9.0E-6                    -1.343875401729333E-19   1.0398378480811333E-17   4.418193305538447E-16    2.0003427241840778E-16   3.102802720279204E-16    9.071169067969598E-17    2.821141121830758E-17    -4.575964530080066E-18   -6.7094384703639676E-18  1.230497542200511E-18    -5.4720971877069295E-19
9.499999999999999E-6      -4.257305454511384E-20   1.0237174323618172E-16   1.0110201152393603E-15   7.438709017660505E-16    6.751572562560655E-16    1.854292479300233E-16    6.639180572839818E-17    1.843423395094796E-17    7.281482440939395E-18    3.316419382706014E-18    -5.631213697048893E-19
9.999999999999999E-6      4.1811553548062405E-19   5.602909223870942E-16    1.892936485021057E-15    2.0530906589825677E-15   1.6588081977658173E-15   4.330208999413528E-16    1.2586474389952592E-16   4.423305511369863E-17    3.863057957803378E-17    -3.8862937809932153E-20  1.0270662154861117E-18
1.05E-5                   6.52111658398238E-19     1.4736465252013793E-15   4.7554051864245145E-15   4.773315638041743E-15    4.373555940066905E-15    1.2063007937101335E-15   2.8033813267527156E-16   1.909466877233447E-17    2.9490867539742064E-17   -1.0813356354735597E-17  6.638268494770216E-19
1.1E-5                    -6.06151110505682E-19    3.401526170884086E-15    1.3523273113190418E-14   1.1033402057541753E-14   1.0468099995813168E-14   3.074756044608015E-15    7.750533491733677E-16    -7.905874403348979E-18   -6.289915002054596E-17   -1.1503612956516624E-17  -2.907959487116709E-18
1.15E-5                   -2.9008352232946322E-18  8.512543787393215E-15    3.234574538866758E-14    2.6956717561323438E-14   2.3543545406694402E-14   7.0048863677824915E-15   2.0004863667781707E-15   2.0356848626010642E-16   -9.468455341565235E-17   2.1960573362618662E-17   7.670254804620453E-19
1.2E-5                    -1.7950390522989573E-18  2.1140157466121433E-14   6.744502364208412E-14    6.577864500617357E-14    5.3574751454626196E-14   1.6250299530853656E-14   4.389020869576385E-15    8.002656044584127E-16    2.1032171971140598E-16   6.646016264191796E-17    1.4690637761462647E-17
1.2499999999999999E-5     6.266262224564469E-18    5.061493307675959E-14    1.4032108665028048E-13   1.4905256440903054E-13   1.1879119544393122E-13   3.9112481528079833E-14   8.994432930740657E-15    1.5575697894975798E-15   8.000591637307388E-16    3.96161220366052E-17     6.073636061489456E-18
1.3E-5                    1.2483156050204986E-17   1.1901705969458454E-13   3.010447456295054E-13    3.1429434424464043E-13   2.467603530990751E-13    8.87951934995655E-14     1.9475202079923517E-14   2.6675113253167687E-15   1.0627703958731758E-15   -8.164546761565132E-17   -4.4609387940188303E-17
1.35E-5                   -2.325079820936124E-18   2.6980303615857286E-13   6.273288807370147E-13    6.518421449344762E-13    4.979875504718438E-13    1.8606953232079595E-13   4.426788191150739E-14    6.2082779650827085E-15   7.377026059107273E-16    -1.1246119049198404E-16  -4.693821748807018E-17
1.4E-5                    -3.590834635293296E-17   5.795179242816017E-13    1.2244250624041408E-12   1.3487965838199487E-12   1.0039184693128204E-12   3.819573902231285E-13    9.753159637959009E-14    1.6088084610286344E-14   1.4047941092613356E-15   2.5872705187643987E-16   1.1361431289168625E-16
1.45E-5                   -3.9042638050100044E-17  1.186046546963636E-12    2.2505799169713788E-12   2.658555000104227E-12    1.9503278944396186E-12   7.889243282220124E-13    2.0279236004562564E-13   3.687640622403324E-14    6.221767247243869E-15    1.072146369246309E-15    2.8747173926588165E-16
1.4999999999999999E-5     3.4155927864249266E-17   2.328555796994153E-12    3.99026276907854E-12     4.854033526369673E-12    3.5433389103487285E-12   1.5701894998353247E-12   4.0594573770210365E-13   7.678503733367333E-14    1.699127649335923E-14    1.7934724579210686E-15   1.015268151601234E-16
1.55E-5                   1.224352062833935E-16    4.37771357440059E-12     6.996783864605664E-12    8.402546724596984E-12    6.1652256868684326E-12   2.9080022286979394E-12   7.948392891005868E-13    1.5761267038699401E-13   3.2528599621787424E-14   1.9226809189320087E-15   -3.482839726808017E-16
1.6E-5                    6.516676440211574E-17    7.851053717229254E-12    1.2138972432137291E-11   1.4178245424356373E-11   1.0604880559393685E-11   5.087503762892088E-12    1.5169758873368444E-12   3.24321341327911E-13     5.4308676351377444E-14   2.707182219539128E-15    -9.068087147309061E-17
1.6499999999999998E-5     -1.8885486871515753E-16  1.3351234257948851E-11   2.0112459250094255E-11   2.2873210879024612E-11   1.765622410870417E-11    8.664330758452125E-12    2.8027300482279753E-12   6.453404036540516E-13    9.774083693193808E-14    8.145762662604455E-15    1.6415490081307787E-15
1.7E-5                    -4.0677097897137845E-16  2.126364276886357E-11    3.042739379997481E-11    3.360272809739441E-11    2.6937522338208656E-11   1.4285092444797007E-11   4.995190732670248E-12    1.2144522621542224E-12   1.9592810397711836E-13   2.2809057088143498E-14   3.907962926866482E-15
1.75E-5                   -2.722515990306781E-16   3.128013216355377E-11    4.104783289800104E-11    4.365636894910158E-11    3.641183327160013E-11    2.1891529665706658E-11   8.500020369439683E-12    2.1821402618307176E-12   3.868670780202649E-13    4.844684250182995E-14    5.040171383822014E-15
1.8E-5                    1.4446461584352452E-16   4.2313709534532386E-11   4.972369653571257E-11    5.070594148473708E-11    4.387521830547922E-11    3.004457021191341E-11    1.3502340127278365E-11   3.8012135811295474E-12   7.032278007680181E-13    8.72193379785413E-14     6.296146019230435E-15
1.85E-5                   2.1081613325766005E-16   5.314294066395708E-11    5.5783743887548935E-11   5.493892898645396E-11    4.874446650445639E-11    3.653389624110379E-11    1.950220607094705E-11    6.372619672138734E-12    1.2041794135895442E-12   1.551013207133368E-13    1.3652863059549916E-14
1.8999999999999998E-5     -8.7859212438594905E-16  6.297021291258025E-11    5.998652238339735E-11    5.7666710610678877E-11   5.13704021144374E-11     3.997657323041668E-11    2.5147562941401986E-11   9.981545612782373E-12    2.0467676255348656E-12   2.9326284471207914E-13   3.441084417734991E-14
1.95E-5                   -3.572713703078163E-15   7.087536545034588E-11    6.255894708061678E-11    5.8044750851366284E-11   5.076981932585893E-11    4.0420636006655237E-11   2.8855679427852875E-11   1.4166559680244466E-11   3.4982747985790715E-12   5.602450600819528E-13    7.314404283218545E-14
1.9999999999999998E-5     -7.839417425330477E-15   7.494127819031455E-11    6.22087576408138E-11     5.301568852329671E-11    4.465356235823002E-11    3.80324365963454E-11     2.9852262174062336E-11   1.793234936153995E-11    5.7688904432869E-12      1.0129035692673273E-12   1.349080077342499E-13
2.05E-5                   -1.3738302968872976E-14  7.289018815413617E-11    5.720934376431156E-11    4.091865757847439E-11    3.2262624528004645E-11   3.1867923425749595E-11   2.8418667126178984E-11   2.0293931331149305E-11   8.717957459269646E-12    1.7103433600959818E-12   2.3534139368368437E-13
2.1E-5                    -2.3254381729873167E-14  6.384893994527007E-11    4.6394736068039536E-11   2.338547821023892E-11    1.5704013295345136E-11   2.092931348526608E-11    2.4872314416613934E-11   2.0867566080647824E-11   1.172633283753666E-11    2.7427229174726523E-12   4.0847044074763137E-13
2.1499999999999997E-5     -4.3684380980923655E-14  4.846333631224073E-11    2.8477073950766584E-11   2.520262926741282E-12    -2.724525288305449E-12   6.162188788169048E-12    1.866870165700064E-11    1.9809611780485655E-11   1.397756996654332E-11    4.2104019047346794E-12   7.072281153850386E-13
2.2E-5                    -9.024848431819928E-14   2.6591262098899227E-11   1.1078665679761354E-12   -2.304207291210198E-11   -2.3935842717084005E-11  -9.974057264670998E-12   9.187738570094192E-12    1.7199877329798157E-11   1.495844085959579E-11    6.088394163040482E-12    1.1986646836326753E-12
2.2499999999999998E-5     -1.839418865596445E-13   -4.238437512867079E-12   -3.8528296023796985E-11  -5.840639773272999E-11   -5.190940047668422E-11   -2.657866075340795E-11   -2.7685305084227254E-12  1.2771722654753843E-11   1.4662346711633072E-11   8.07443131870813E-12     1.946866441266752E-12
2.3E-5                    -3.4730031014766174E-13  -4.7077074320764704E-11  -9.198805401657088E-11   -1.0861613160571025E-10  -9.029523489240821E-11   -4.6259494606411467E-11  -1.542740619328696E-11   6.385622162520772E-12    1.3276452638522317E-11   9.644120126543005E-12    2.9690714352017772E-12
2.35E-5                   -6.124413722640829E-13   -1.0278304131436495E-10  -1.5830334116713962E-10  -1.742574396940467E-10   -1.3950139396551114E-10  -7.330991443933894E-11   -2.861788709338129E-11   -1.5691495918082888E-12  1.0769339032909515E-11   1.036295544845509E-11    4.181596182825293E-12
2.4E-5                    -1.0509197916720742E-12  -1.6995371869480972E-10  -2.342671603624502E-10   -2.505306015491497E-10   -1.9701623613494788E-10  -1.1005617305305606E-10  -4.503540896846341E-11   -1.0671541163823826E-11  6.915062241252505E-12    1.0158460542044713E-11   5.396504728881742E-12
2.45E-5                   -1.800813282270213E-12   -2.4719663801341157E-10  -3.162827479537828E-10   -3.310241959570953E-10   -2.6026068012794604E-10  -1.5511266399141747E-10  -6.786099282673402E-11   -2.133136898657821E-11   1.6745365761212533E-12   9.220213327017346E-12    6.400709523077806E-12
2.4999999999999998E-5     -3.0367123127065565E-12  -3.3423449890303033E-10  -4.0239350107854666E-10  -4.1255689586747485E-10  -3.2841709889470167E-10  -2.046714569546163E-10   -9.732127515172136E-11   -3.4782136900642206E-11  -4.668614034594584E-12   7.62152713324418E-12     7.0431062454575495E-12
2.55E-5                   -4.860045724950572E-12   -4.3055985832784747E-10  -4.925597667277991E-10   -4.957632858183124E-10   -4.0062136540862985E-10  -2.549776215093734E-10   -1.3042232312564148E-10  -5.200794121723465E-11   -1.1916405670594224E-11  5.11568201581139E-12     7.2172868452454874E-12
2.6E-5                    -7.172947370855654E-12   -5.338239984364831E-10   -5.868463543666278E-10   -5.809365774465336E-10   -4.728383776942924E-10   -3.038392814315718E-10   -1.639097343932743E-10   -7.270547477099037E-11   -2.046658877529897E-11   1.342289178602326E-12    6.7559683183111584E-12
2.65E-5                   -9.638938067450638E-12   -6.398700241337382E-10   -6.831491913195555E-10   -6.642399682696252E-10   -5.383623468685629E-10   -3.5050941606044244E-10  -1.9653660846913795E-10  -9.527930930393083E-11   -3.1267251137703305E-11  -3.834214133940107E-12   5.403784212946216E-12
2.7E-5                    -1.175833781558945E-11   -7.437628403157742E-10   -7.760273886919336E-10   -7.38308413584523E-10    -5.921251575136387E-10   -3.945456020184301E-10   -2.2831302034496104E-10  -1.177839610757588E-10   -4.512940541337047E-11   -1.0260824154882593E-11  2.977007208737129E-12
2.7499999999999998E-5     -1.2981623641497548E-11  -8.402845876096086E-10   -8.570722802682308E-10   -7.955491240910118E-10   -6.330243412894179E-10   -4.345289212874818E-10   -2.586258081273448E-10   -1.390248157663153E-10   -6.198022241815375E-11   -1.774620185884037E-11   -4.2478981403600795E-13
2.8E-5                    -1.279704386387496E-11   -9.235053919336335E-10   -9.16592331508971E-10    -8.298396190203694E-10   -6.606570485367582E-10   -4.67206831083009E-10    -2.8593301680916296E-10  -1.590754704744518E-10   -8.069055035435923E-11   -2.6320807293188216E-11  -4.4256059248662514E-12
2.8499999999999998E-5     -1.0837789075307872E-11  -9.861337627311123E-10   -9.456196402041078E-10   -8.352243874098649E-10   -6.703564503591249E-10   -4.874321973790457E-10   -3.0876715938636446E-10  -1.7881264358499566E-10  -9.95701829701823E-11    -3.623224147949395E-11   -8.688814250326675E-12
2.9E-5                    -7.062873033673358E-12   -1.0194490447709167E-9   -9.366498678285859E-10   -8.041234187340103E-10   -6.52413373219989E-10    -4.891752089062021E-10   -3.258179694730837E-10   -1.9859121298737408E-10  -1.170870893974535E-10   -4.7643113415682056E-11  -1.3281180586636934E-11
2.95E-5                   -1.90105365819934E-12    -1.0139643494904646E-9   -8.827357412141174E-10   -7.276815901064413E-10   -5.958289916363003E-10   -4.671911775263702E-10   -3.3459131342701204E-10  -2.169484996487596E-10   -1.3229663067108755E-10  -6.022900523097938E-11   -1.8679156350586988E-11
2.9999999999999997E-5     3.872588150688857E-12    -9.601932982225175E-10   -7.763587518901718E-10   -5.976292474713223E-10   -4.923164109625656E-10   -4.1801653289188853E-10  -3.3072941868016463E-10  -2.3058455597882564E-10  -1.448094156555412E-10   -7.303363200604736E-11   -2.531195853428679E-11
3.05E-5                   9.59536589259989E-12     -8.489461484462047E-10   -6.092543537190563E-10   -4.0723381110189336E-10  -3.3764949124516906E-10  -3.394076924075256E-10   -3.095190895945694E-10   -2.358892396066249E-10   -1.5449154184049748E-10  -8.48634910821395E-11    -3.306096179487204E-11
3.1E-5                    1.5243204058412217E-11   -6.714394532824574E-10   -3.7304614553597634E-10  -1.509922712482335E-10   -1.309391558048937E-10   -2.291099141048647E-10   -2.6804235977714633E-10  -2.3057821155326753E-10  -1.6115470406254277E-10  -9.501714402424075E-11   -4.1284532040286265E-11
3.15E-5                   2.161024079297013E-11    -4.197521080904989E-10   -6.050527389663924E-11   1.7510229370502565E-10   1.267921866955285E-10    -8.459103726220637E-11   -2.0538398780850458E-10  -2.1373398261985307E-10  -1.642745249455451E-10   -1.036144396499892E-10   -4.9393935356243393E-11
3.2E-5                    2.9947252926438364E-11   -8.748880678019132E-11   3.326053729573737E-10    5.721036509739647E-10    4.3433406418153854E-10   9.604888790868081E-11    -1.2101351726769905E-10  -1.8445989657815858E-10  -1.626403100572572E-10   -1.1099868697911062E-10  -5.7322155610849203E-11
3.25E-5                   4.125458166213194E-11    3.2958691329406505E-10   8.061682773836458E-10    1.0369358171945832E-9    7.914751164552811E-10    3.132830002036597E-10    -1.3889965419010119E-11  -1.410194280170538E-10   -1.5408888441321423E-10  -1.1668870391018725E-10  -6.530672792886829E-11
3.2999999999999996E-5     5.567053971438745E-11    8.325235905717422E-10    1.3558632970821836E-9    1.562472041005523E-9     1.1977402034556381E-9    5.661933248537609E-10    1.166382607527075E-10    -8.145021939739069E-11   -1.3578804565694452E-10  -1.1901977038826186E-10  -7.324094247196625E-11
3.35E-5                   7.233652005811549E-11    1.4175440171758773E-9    1.9737087242134247E-9    2.1381685232557737E-9    1.6484274965718847E-9    8.524544071703872E-10    2.6990013290199053E-10   -4.643515034298228E-12   -1.0522653783082807E-10  -1.1593596341028892E-10  -8.035747023381031E-11
3.4E-5                    8.979421925766847E-11    2.0746862006912314E-9    2.647065245521281E-9     2.7502529752279484E-9    2.1313314896944826E-9    1.167316025579433E-9     4.4437282178767776E-10   8.934319429544973E-11    -6.122640743831078E-11   -1.0605323087443006E-10  -8.552299783548914E-11
3.45E-5                   1.0659016155337463E-10   2.7877286009498906E-9    3.3566272670561662E-9    3.381055986116853E-9     2.627715850686604E-9     1.5023141798780692E-9    6.383484684666874E-10    1.9957034354972776E-10   -4.032676226697195E-12   -8.879127855007871E-11   -8.7667290580262E-11
3.5E-5                    1.2164357644779947E-10   3.535271335903865E-9     4.075902937030476E-9     4.0076225489127975E-9    3.1163825792751783E-9    1.845379836682652E-9     8.490787617536323E-10    3.2431416067355654E-10   6.555465529491423E-11    -6.354620976872946E-11   -8.587700687811882E-11
3.5499999999999996E-5     1.342082401225981E-10    4.291951253008208E-9     4.773061653752059E-9     4.600631052827033E-9     3.5762430877509496E-9    2.18256006769911E-9      1.0710369943236258E-9    4.6092905892657313E-10   1.4700289720356997E-10   -2.9071934526465584E-11  -7.928091442095335E-11
3.6E-5                    1.436272697914864E-10    5.028730708450421E-9     5.413266068524201E-9     5.125099063652807E-9     3.985284570496286E-9     2.499460011006288E-9     1.2954710954187553E-9    6.059339166304167E-10    2.399610645743442E-10    1.605464652386523E-11    -6.70657363319033E-11
3.65E-5                   1.4911867576015656E-10   5.711868602960414E-9     5.959361896819503E-9     5.542915717302751E-9     4.318242841460257E-9     2.7807547218752378E-9    1.5119683448060759E-9    7.55370919571775E-10     3.434310571481656E-10    7.237097317946178E-11    -4.857321387979118E-11
3.7E-5                    1.4958869898794806E-10   6.301577517343443E-9     6.3709707393870314E-9    5.815225605147325E-9     4.5458263839727485E-9    3.0086613450685984E-9    1.710359970202853E-9     9.049781526479291E-10    4.549587962310874E-10    1.3904719646449504E-10   -2.319969041946324E-11
3.75E-5                   1.4341223686520504E-10   6.7523628346838945E-9    6.604036676746126E-9     5.903014623230688E-9     4.635851828939747E-9     3.1627517784069297E-9    1.880949019655714E-9     1.0497386380691322E-9    5.703596556409545E-10    2.1438977736989252E-10   9.818108853276784E-12
3.7999999999999995E-5     1.283672638773219E-10    7.015875818783613E-9     6.612644257601706E-9     5.766767544683003E-9     4.5553700958744175E-9    3.221871327578418E-9     2.0131070745975413E-9    1.1829064138262734E-9    6.840466062274946E-10    2.9653418916797677E-10   5.128059989529128E-11
3.85E-5                   1.0199447014293819E-10   7.044673566300967E-9     6.352508870500581E-9     5.367504314706393E-9     4.273341755543867E-9     3.166398472022714E-9     2.094302379269972E-9     1.2954148791346576E-9    7.89782350788312E-10     3.833739545518716E-10    1.0142303847678004E-10
3.9E-5                    6.227531244316696E-11    6.7946007071926025E-9    5.7837691799807195E-9    4.670117230596666E-9     3.763522629779947E-9     2.9790090749102225E-9    2.111095428123121E-9     1.3767665900441335E-9    8.814622948940253E-10    4.717973202635416E-10    1.593588388105274E-10
3.95E-5                   8.131404409522067E-12    6.225388683866225E-9     4.872234775507595E-9     3.64759270505303E-9      3.0066575215499398E-9    2.644404806681584E-9     2.0512045257240547E-9    1.4172139731087832E-9    9.534251795277123E-10    5.57247766047654E-10     2.231898436212492E-10
3.9999999999999996E-5     -6.057388997393223E-11   5.301187453356097E-9     3.590985101423011E-9     2.284039509873766E-9     1.9912851159275816E-9    2.149852591004667E-9     1.904664929865841E-9     1.4093757348050038E-9    1.0001173609526187E-9    6.343480523928763E-10    2.9069442586856003E-10
4.0499999999999995E-5     -1.4329703711576052E-10  3.9929911333615675E-9    1.923850272945967E-9     5.758505709692368E-10    7.137259859272763E-10    1.4870319685960452E-9    1.6637188196564442E-9    1.3478094007521385E-9    1.0155417466148948E-9    6.98123197456701E-10     3.598514912944432E-10
4.1E-5                    -2.3889364657384584E-10  2.283183581455953E-9     -1.3054931303590883E-10  -1.4678676805980229E-9   -8.212425846689908E-10   6.537014879230897E-10    1.3227782381778165E-9    1.2274592079306888E-9    9.93170010876425E-10     7.446209512730612E-10    4.286807948718987E-10
4.15E-5                   -3.4541774731202225E-10  1.7016311727961656E-10   -2.556274608895934E-9    -3.824046162287583E-9    -2.5982127497728077E-9   -3.4602161729930957E-10  8.791919576993579E-10    1.0431955707634106E-9    9.266176498800206E-10    7.703309236686845E-10    4.946604047099916E-10
4.2E-5                    -4.599187234764336E-10   -2.329416932805782E-9    -5.3190491609806674E-9   -6.453332028002894E-9    -4.5884448287282885E-9   -1.5019326078666163E-9   3.3403951568245583E-10   7.911051980782179E-10    8.107509013793997E-10    7.71064139852337E-10     5.543670286218078E-10
4.2499999999999996E-5     -5.784706833431588E-10   -5.1807956419872036E-9   -8.365464678391481E-9    -9.297968194536425E-9    -6.748502316425489E-9    -2.796957108235954E-9    -3.07757678754695E-10    4.700785139996721E-10    6.425397511844887E-10    7.414683985532209E-10    6.036464379654358E-10
4.2999999999999995E-5     -6.964155866332207E-10   -8.331039600397543E-9    -1.1621934416861543E-8   -1.2281119630396888E-8   -9.020998116642903E-9    -4.205251735656798E-9    -1.0375799879373722E-9   8.234759101347992E-11    4.211641194402401E-10    6.75651123529207E-10     6.380805381587713E-10
4.35E-5                   -8.087285959996687E-10   -1.1707064901439084E-8   -1.49939241192374E-8     -1.530752459837928E-8    -1.1336352217579467E-8   -5.690805271475919E-9    -1.8429127783665385E-9   -3.66757242510992E-10    1.475249072913926E-10    5.683545877712172E-10    6.533195184265492E-10
4.4E-5                    -9.104661139308075E-10   -1.521337335058889E-8    -1.836630129358736E-8    -1.82646326746685E-8     -1.3613814129886283E-8   -7.207976256494653E-9    -2.706986506614079E-9    -8.689438513015026E-10   -1.7610138632702444E-10  4.158528283005745E-10    6.450579600128252E-10
4.45E-5                   -9.971359471354194E-10   -1.8732225111038562E-8   -2.160546157259284E-8    -2.1024266157261102E-8   -1.5761294326203266E-8   -8.703831332611742E-9    -3.608612379503249E-9    -1.412901544269248E-9    -5.456074549032608E-10   2.162923955247763E-10    6.088226153290262E-10
4.4999999999999996E-5     -1.064607112859413E-9    -2.2126634851639952E-8   -2.456293579229936E-8    -2.344584773236863E-8    -1.7675652135978716E-8   -1.0120854237587684E-8   -4.52212068588899E-9     -1.984534979149567E-9    -9.53915589342448E-10    -3.0188797870520274E-11  5.399853803439696E-10
4.5499999999999995E-5     -1.1082800964542362E-9   -2.524454016942707E-8    -2.7079372585687155E-8   -2.538167712956039E-8    -1.92458204205948E-8     -1.1398624872860462E-8   -5.41743304351515E-9     -2.5674769913403688E-9   -1.3899969983910045E-9   -3.2117452287750204E-10  4.342501331525361E-10
4.6E-5                    -1.1218094351182301E-9   -2.7923185755055175E-8   -2.898879858839818E-8    -2.6683178210024918E-8   -2.035919006360635E-8    -1.2474337961687844E-8   -6.2608634236518715E-9   -3.1433218674568875E-9   -1.8388555281239276E-9   -6.515166791015652E-10   2.8839986619550933E-10
4.65E-5                   -1.0962589045474276E-9   -2.999421375985351E-8    -3.012455364435423E-8    -2.7206662859724712E-8   -2.090868730206233E-8    -1.3283371270267643E-8   -7.016911702183218E-9    -3.6914533036488123E-9   -2.282554710100008E-9    -1.013037710838814E-9    1.0084896691161925E-10
4.7E-5                    -1.0205777669684984E-9   -3.128993408496705E-8    -3.032743724938205E-8    -2.6818698536095778E-8   -2.0797470636964503E-8   -1.3761189954088504E-8   -7.65019656362335E-9     -4.1891552716870976E-9   -2.7016586080778777E-9   -1.3946582610493567E-9   -1.2817808647724996E-10
4.7499999999999996E-5     -8.835773806032062E-10   -3.1650503748497975E-8   -2.9454444646043278E-8   -2.5402490763723477E-8   -1.99410826268504E-8     -1.3846752822056801E-8   -8.126488744389964E-9    -4.612576110988508E-9    -3.0763452052899546E-9   -1.7829214949670114E-9   -3.9659547907784554E-10
4.8E-5                    -6.766054687846729E-10   -3.093159110452013E-8    -2.7386503664414764E-8   -2.2865703354369864E-8   -1.8269872845116803E-8   -1.3486579646707508E-8   -8.413041903368785E-9    -4.938172491733465E-9    -3.38690571253442E-9     -2.162641564571651E-9    -7.00258945406541E-10
4.85E-5                   -3.955501637213254E-10   -2.9012250762761724E-8   -2.403560739092415E-8    -1.914823041764861E-8    -1.573408660562239E-8    -1.2638470375656448E-8   -8.47940330381307E-9     -5.143954367289684E-9    -3.6138681410010085E-9   -2.517372542847264E-9    -1.0327017807751086E-9