% Model:              Untitled.mph
% Version:            COMSOL 6.0.0.405
% Date:               Jul 17 2025, 06:17
% Dimension:          1
% Nodes:              401
% Expressions:        11
% Description:        Point graph
% Time (s)                Displacement field, Y component Displacement field, Y component Displacement field, Y component Displacement field, Y component Displacement field, Y component Displacement field, Y component Displacement field, Y component Displacement field, Y component Displacement field, Y component Displacement field, Y component Displacement field, Y component
0                         4.5530716266766836E-36   1.7136620746175308E-34   -6.97543407832812E-33    2.0358158445872877E-33   1.4295958316320494E-32   1.4687184330812265E-33   9.303294964719436E-34    5.9949846821873E-34      -4.93154566293413E-35    -3.8052897422923336E-32  -9.87300532733967E-33
5.0E-7                    -4.93509477178404E-28    7.472140750521299E-27    1.981257988660094E-24    -8.115433796157442E-25   -9.293400724912843E-25   -1.5068860054801745E-25  -1.8638516336829232E-25  -2.456554937062598E-25   1.888867959722423E-26    8.565602877342603E-24    1.6367414422887698E-24
1.0E-6                    5.9813835979615285E-28   -1.4739114586854947E-25  -1.652632590566759E-22   3.394286488973537E-24    1.1046476072482693E-24   9.549696581930524E-25    2.6568268055476685E-25   8.262707170596438E-25    -4.576964335355111E-26   -2.513499175054068E-23   -1.5458355463556194E-24
1.5E-6                    -1.7486278885947887E-27  1.7573928662316762E-25   7.538753744905E-22       1.926654859161268E-23    1.0423171489929961E-24   1.3251190249556926E-24   1.1274608985100872E-25   5.400554916059548E-24    -6.344253131025496E-25   -1.6503762024214757E-23  2.4012770239186094E-24
2.0E-6                    -7.670509088536648E-27   -4.0927255987869925E-25  1.6778416883090007E-21   -1.9287789288022742E-23  -1.1523818536988713E-22  5.357337482305066E-26    -6.20390666440545E-25    -2.0097597476566777E-23  3.111987610469214E-24    9.008748916834819E-23    1.0506977270116244E-23
2.4999999999999998E-6     4.5558130827311036E-26   4.574796774683183E-24    -2.6775696642237192E-21  -1.6389821454747665E-22  1.441808610723207E-23    -2.4520960712225306E-23  1.510513381617815E-23    -1.7395355605394303E-23  6.759510491081362E-24    2.1424744467797713E-22   -2.624125104684649E-23
3.0E-6                    1.1752345317687268E-25   -2.4314385467711722E-23  -2.5525748332028077E-20  -7.89770680877688E-22    2.7822749696968207E-22   -1.3580995614922143E-22  -3.76004136985661E-23    2.739128850602636E-22    -4.276154657897498E-23   1.4947391462843696E-21   -5.530233256259557E-23
3.5E-6                    6.654519658468936E-26    -9.373366518845226E-23   -1.5473942521723155E-20  1.0866772515334469E-21   3.4458480020700935E-21   -1.8656396581459776E-22  8.818740418509412E-23    9.448745180814637E-23    3.0456379241364097E-24   -1.0705577991831433E-20  -2.8237431891499564E-22
4.0E-6                    -7.620362684039361E-25   2.910378857817731E-22    1.781846583837479E-19    1.09017655467765E-20     5.0404903354737914E-21   3.89797256034978E-22     4.1380255356834913E-22   -2.2035208198141196E-21  4.434885565403548E-22    -1.821811492167359E-21   -1.3832003848794247E-21
4.5E-6                    -1.1459014541924359E-25  1.0284877034799703E-21   2.494061413598597E-19    5.2363737770606736E-21   -3.4692158043437024E-20  4.1729337338413175E-21   -9.562933460967798E-22   7.688556122912517E-22    -3.4037883136129846E-23  7.513715430906126E-20    -6.736328102390392E-22
4.9999999999999996E-6     3.365659279478861E-24    -1.905273966825181E-21   -6.39289471662256E-19    -6.966662291692774E-20   -6.882236301768815E-20   9.628609848924492E-21    -2.3222851520203786E-21  1.6965771080482518E-20   -2.3021351770350854E-21  1.1626207928875265E-20   8.257926897811605E-21
5.5E-6                    5.479101709197842E-24    -7.060412853260432E-21   -1.5321755662745062E-18  -1.1880585477915345E-19  1.7700165707575796E-19   -8.369276543794672E-21   9.214351102891067E-21    -3.3712219988623662E-21  2.25688145724641E-21     -3.234141498524995E-19   2.6824632395411666E-20
6.0E-6                    -2.3531089152961493E-23  1.1731945476571569E-20   1.093443069865399E-18    2.3241390053843078E-19   4.653838052633202E-19    -4.5066172275225634E-20  1.9698400018612392E-20   -9.264586552016013E-20   1.457412951324012E-20    -2.7285760814700903E-19  3.932663344303511E-20
6.5E-6                    -1.6625636397613772E-22  4.8806256593799984E-20   5.664518165031506E-18    8.722846339923649E-19    -3.132697672556493E-19   4.531341397396656E-20    -4.332793592294755E-20   2.5586362329707946E-20   -2.2032578272644054E-21  7.930974633042606E-19    -1.3883417619740585E-19
7.0E-6                    1.722052332474039E-22    -4.632710921413838E-20   3.079271490621355E-19    1.5420265922932185E-20   -1.526125545148861E-18   2.8178598866066E-19      -7.399388907847437E-20   5.573109701681493E-19    -2.539441296368319E-20   1.2251083071768658E-18   -7.6178105549192435E-19
7.499999999999999E-6      2.816342662591627E-21    -3.053448896219137E-19   -1.379711925714071E-17   -3.540406468604622E-18   -3.623544346452409E-19   1.9407558695291674E-19   3.8059895728541103E-19   3.4675317041154147E-19   9.724375591724568E-20    -1.5308388145820541E-18  -7.427907734797991E-19
8.0E-6                    3.491829102256224E-21    3.831741780953187E-20    -2.4053103276727368E-18  -3.950053617739E-18      2.9751311700907598E-18   6.96572172580886E-20     1.0809990233248075E-18   -1.7435316069855806E-18  2.7986777198163146E-19   -4.6429554120896204E-18  2.3686189859714364E-18
8.5E-6                    -1.5523989607618126E-20  1.6284447975046306E-18   3.070534824902623E-17    8.781622980709587E-18    7.117547180983876E-18    2.814377780274681E-18    4.359832357315491E-19    -1.2366479298856432E-18  2.9163702595983235E-19   -3.854823856341041E-18   4.771025347894763E-18
9.0E-6                    -3.51184855443233E-20    1.4602682181108256E-18   -1.3426586973575405E-17  2.443389125074428E-17    1.537069314738245E-17    1.097904923059099E-17    -9.952657822030488E-20   9.749560148882E-18       1.3366104396312629E-18   -6.330747032568445E-18   -9.826643913199709E-18
9.499999999999999E-6      8.18649933292499E-20     -4.9244023613050896E-18  -1.0605279787688375E-16  1.6974553446566048E-18   1.771085882189692E-17    1.997554456337248E-17    9.002352824616612E-18    2.2564313702416403E-17   5.23715245790809E-18     -2.2149372400403752E-17  -4.7333154686956514E-17
9.999999999999999E-6      3.7245836943712127E-19   -7.777840733440725E-18   8.670749217025176E-17    -6.556748954330783E-17   -1.5274377990643115E-17  2.7090360742684177E-17   3.6430717800542805E-17   8.692849011044652E-18    9.0787240609447E-18      -6.442582782086864E-17   -6.984612077258434E-17
1.05E-5                   2.486688828220375E-19    1.8118873300876365E-17   5.432603281538954E-16    -5.721601950996287E-17   -1.7276138929413365E-17  7.74286718670507E-17     7.961662022893788E-17    -1.1743786949886683E-17  1.2934868037689465E-17   -1.7929648756799916E-16  -5.35655910498848E-17
1.1E-5                    -7.200654564633924E-19   6.151885505290745E-17    1.894206919620155E-16    1.6765264392931342E-16   2.940665116812582E-16    3.0791278353638786E-16   1.6304226762000622E-16   1.0723131791486401E-16   5.4144269034304156E-17   -4.129075583080918E-16   -1.6128270456056992E-16
1.15E-5                   3.346694451547062E-19    4.3708613445875425E-17   -1.456778915078941E-15   4.3305823565857067E-16   1.0715808308279868E-15   8.830736998718469E-16    4.264786093087823E-16    5.093733840008747E-16    2.0944362579234032E-16   -9.05469572562892E-16    -8.114944756394015E-16
1.2E-5                    9.187711861529592E-18    -3.536883697727023E-17   -1.4182751186315974E-15  2.4331087242367395E-16   1.7927448790955697E-15   1.893757985024424E-15    1.1779106100317727E-15   1.029321341626758E-15    4.978194898495669E-16    -2.4113005894462858E-15  -2.4594270041135384E-15
1.2499999999999999E-5     2.3369812392338918E-17   1.0970977043698706E-16   4.358342087484118E-15    -3.038647556094354E-16   2.2965566095687666E-15   3.770270129380279E-15    2.929949558181491E-15    1.4000487403082182E-15   8.714687829568593E-16    -6.4454415826178134E-15  -5.4929387677701126E-15
1.3E-5                    2.9190697697790624E-17   8.754896769507066E-16    1.221765554869338E-14    4.168343855038793E-16    5.425641697611093E-15    8.729888024211757E-15    6.696667030727716E-15    2.5498535235343662E-15   1.6933860043416755E-15   -1.4617620953627172E-14  -1.1292805229414476E-14
1.35E-5                   4.843381294054231E-17    2.269819735832374E-15    1.0165203045584674E-14   4.345270434319076E-15    1.6807004352167068E-14   2.2377939031352636E-14   1.4831925260496035E-14   7.611099723573729E-15    4.5024332859780434E-15   -3.0432573177090716E-14  -2.5052171877310257E-14
1.4E-5                    2.0581307219446E-16      4.130068505998858E-15    -8.832023258466573E-16   1.062479724271211E-14    4.091473613056556E-14    5.378102674732745E-14    3.2426120477088824E-14   2.0051796627065356E-14   1.1833576472771656E-14   -6.633644796681778E-14   -5.875484387378164E-14
1.45E-5                   6.807316682238888E-16    7.77930286939307E-15     1.4259697417156234E-14   1.6308415077903785E-14   8.36224598367273E-14     1.164352843819661E-13    6.938387247178469E-14    4.059809365238134E-14    2.573984220636102E-14    -1.502399247194975E-13   -1.3197576040092046E-13
1.4999999999999999E-5     1.575770659870314E-15    1.8140319797945372E-14   9.965935229827122E-14    2.6378280798945956E-14   1.667769826150046E-13    2.3919819193568994E-13   1.440996219549628E-13    7.131436385421406E-14    4.8335098253313294E-14   -3.2672390210484677E-13  -2.752504665246207E-13
1.55E-5                   3.194456135375836E-15    4.484088116963928E-14    2.4679532760519196E-13   6.498131281268931E-14    3.4156244568666024E-13   4.919538045324739E-13    2.9111604527898087E-13   1.3097736722632565E-13   8.918175749514749E-14    -6.685996065197111E-13   -5.50380895083962E-13
1.6E-5                    7.1035548856028656E-15   1.0261929462637758E-13   4.034822460420433E-13    1.677122288813877E-13    6.965392125026084E-13    1.0118928797313437E-12   5.773911705863644E-13    2.679438789027145E-13    1.7757016321723798E-13   -1.317008946098635E-12   -1.0905618568103076E-12
1.6499999999999998E-5     1.718193505594405E-14    2.1427980781645542E-13   6.143409461617485E-13    3.5960058829227973E-13   1.3821243731659183E-12   2.0117136738400115E-12   1.1312874015678312E-12   5.512120863534781E-13    3.686333386410076E-13    -2.5231441752270672E-12  -2.130796971764798E-12
1.7E-5                    3.9696768988956766E-14   4.230424494688391E-13    1.1403107607904312E-12   6.744031209567784E-13    2.64391968063967E-12     3.786986577376771E-12    2.1770876221745496E-12   1.0517619510350072E-12   7.39114573328469E-13     -4.648830103786982E-12   -4.0043733987748076E-12
1.75E-5                   8.461030513743121E-14    8.188976880055273E-13    2.3407055486986275E-12   1.2463170815347143E-12   4.8222105154320356E-12   6.76857684589288E-12     4.0500755229984975E-12   1.862818363930314E-12    1.3943141146181081E-12   -8.172331936924399E-12   -7.142822047495995E-12
1.8E-5                    1.729130014315651E-13    1.56506194518532E-12     4.412780548876151E-12    2.3686632086946917E-12   8.365063346124818E-12    1.1588273359177022E-11   7.167586196464518E-12    3.178884346815608E-12    2.514893476032361E-12    -1.3748291352828187E-11  -1.2095375846044046E-11
1.85E-5                   3.4925787421102894E-13   2.895238862148572E-12    7.36071619949749E-12     4.388489943222872E-12    1.3935304795260092E-11   1.895362351937891E-11    1.1945197177894433E-11   5.353043475355346E-12    4.417068843988393E-12    -2.2052649124779328E-11  -1.9380032451767975E-11
1.8999999999999998E-5     6.903964685061922E-13    5.0842818174770485E-12   1.1255419578388964E-11   7.579922466498602E-12    2.2330076913882066E-11   2.90991061902084E-11     1.861245728870005E-11    8.790311332691383E-12    7.514505462225807E-12    -3.2989048310118226E-11  -2.8892362883439654E-11
1.95E-5                   1.3065115547118843E-12   8.439075731588115E-12    1.630442822472896E-11    1.2296475123103544E-11   3.364896533248065E-11    4.0958515034062066E-11   2.6827424726999223E-11   1.363210303674661E-11    1.2080189648812513E-11   -4.469868471642879E-11   -3.907591860167937E-11
1.9999999999999998E-5     2.3523451731071028E-12   1.3287889632697183E-11   2.2411430513842646E-11   1.9164469240122386E-11   4.601994627364232E-11    5.179787687877018E-11    3.5159778772680143E-11   1.941301721603857E-11    1.7893067737564517E-11   -5.393313500302206E-11   -4.6804245121426544E-11
2.05E-5                   4.0564019684633125E-12   1.980531813928418E-11    2.8684951256092752E-11   2.8493919367825237E-11   5.56427021791189E-11     5.80774779259833E-11     4.099835079066268E-11    2.50246429772776E-11     2.408049098906128E-11    -5.832191301113651E-11   -4.880115682890369E-11
2.1E-5                    6.721405666879694E-12    2.760966840348482E-11    3.35501229512669E-11     3.895436936325709E-11    5.924582044660101E-11    5.726706923751255E-11    4.160383730421998E-11    2.9186179110967826E-11   2.943219633166768E-11    -5.808184083934984E-11   -4.391114347220107E-11
2.1499999999999997E-5     1.0622989454494365E-11   3.54794370506537E-11     3.5360428925117126E-11   4.7345550028862025E-11   5.674330237712052E-11    4.912609117170316E-11    3.603836586758764E-11    3.118091242541943E-11    3.3044940657006017E-11   -5.4373932057673214E-11  -3.4018110313226244E-11
2.2E-5                    1.5821492099442285E-11   4.1655244106509536E-11   3.2883921565531516E-11   5.082727737486903E-11    5.041450209127837E-11    3.526505050017832E-11    2.6178879798532594E-11   3.1190816712731816E-11   3.470390529004789E-11    -4.603842595089811E-11   -2.2106311592971057E-11
2.2499999999999998E-5     2.2025938764331816E-11   4.455724582041057E-11    2.5485576245557712E-11   4.9467423109485804E-11   4.096659488583288E-11    1.7611356293213738E-11   1.5159817301357394E-11   2.969769463683451E-11    3.450130352197769E-11    -2.974041160131959E-11   -8.983088500243091E-12
2.3E-5                    2.8618499692092516E-11   4.311657388273827E-11    1.3291555269746328E-11   4.530014565699338E-11    2.568701420192462E-11    -2.6369169323344815E-12  4.238235437146535E-12    2.634490112232975E-11    3.1978882102569216E-11   -4.252356039495267E-12   7.664949791687974E-12
2.35E-5                   3.476286307432993E-11    3.641889471974962E-11    -2.7387092506862506E-12  3.831815380205491E-11    1.6915573258539919E-12   -2.524151018604411E-11   -8.581901707778067E-12   1.9602640226406857E-11   2.5829745281463478E-11   2.7105047269010936E-11   3.031892979865253E-11
2.4E-5                    3.945476665798944E-11    2.3443353819397617E-11   -2.1273791848377344E-11  2.495933464410943E-11    -3.006950935381944E-11   -5.129808886502389E-11   -2.631244134995867E-11   8.131893850586605E-12    1.484532774175252E-11    6.0185930075739E-11      5.8079892643893296E-11
2.45E-5                   4.1565449560199554E-11   3.586239852076608E-12    -4.1496103716559595E-11  2.13235752028437E-12     -6.598136493627147E-11   -8.359850803155458E-11   -4.950721288832522E-11   -7.335401470513928E-12   -6.992160858965709E-13   9.546340413652922E-11    8.726342328564159E-11
2.4999999999999998E-5     4.007334071116855E-11    -2.2651773362282083E-11  -6.357948709754345E-11   -2.83432748012943E-11    -1.0466380971937485E-10  -1.2524085810371582E-10  -7.566263257429467E-11   -2.421788069889292E-11   -1.9039269482198335E-11  1.378310570190832E-10    1.1593608367020206E-10
2.55E-5                   3.444214167063231E-11    -5.385165917177948E-11   -8.822610043109802E-11   -6.174537296561403E-11   -1.4861596755416906E-10  -1.7637935461513391E-10  -1.0230014787966165E-10  -4.116437163740011E-11   -3.890612050225445E-11   1.9097126324767377E-10   1.4678776371131399E-10
2.6E-5                    2.4735470312568207E-11   -8.851926805892835E-11   -1.1572935150622447E-10  -9.703353839394921E-11   -2.004884624659971E-10   -2.3247630302088996E-10  -1.3014613967219E-10     -6.080242071585744E-11   -6.150322668796227E-11   2.5346217976966113E-10   1.8449507328558468E-10
2.65E-5                   1.116168266990379E-11    -1.2550074302590135E-10  -1.454543800402339E-10   -1.3900302378867968E-10  -2.5960613071421775E-10  -2.8709262748947946E-10  -1.627308689607666E-10   -8.813975429113955E-11   -8.979291671253771E-11   3.2057220215389207E-10   2.306428602663011E-10
2.7E-5                    -6.633625948482291E-12   -1.637709947797169E-10   -1.760964913751852E-10   -1.924253361371768E-10   -3.231193234101889E-10   -3.3708600645005584E-10  -2.0285248290401874E-10  -1.254287270962585E-10   -1.2536868533477234E-10  3.8804299966441134E-10   2.8196678831315697E-10
2.7499999999999998E-5     -2.980747687127536E-11   -2.0235660178080668E-10  -2.0630923877848743E-10  -2.5532288232663434E-10  -3.885856051952209E-10   -3.845248033058919E-10   -2.496516403697479E-10   -1.693749453579293E-10   -1.6654122847810126E-10  4.529663343016996E-10    3.3305038503513963E-10
2.8E-5                    -5.979084188732455E-11   -2.405970092107984E-10   -2.3502453457248387E-10  -3.1943969513013823E-10  -4.533254263652457E-10   -4.328579238315386E-10   -2.9895332805963124E-10  -2.1439334442138893E-10  -2.1022110576822226E-10  5.122190599240197E-10    3.7964644979080926E-10
2.8499999999999998E-5     -9.750270846719723E-11   -2.781559097040443E-10   -2.611794054119567E-10   -3.7638913600326767E-10  -5.123689873184179E-10   -4.812742679865719E-10   -3.458289700009249E-10   -2.5790094237073185E-10  -2.5530915154605904E-10  5.620958944368186E-10    4.194533236033301E-10
2.9E-5                    -1.4302400653249978E-10  -3.1463370669947363E-10  -2.831961672177481E-10   -4.217754182404383E-10   -5.597949514329543E-10   -5.230721980151029E-10   -3.8642768226636097E-10  -3.0079538908583455E-10  -3.029295792986103E-10   5.997477018738128E-10    4.5078338282689686E-10
2.95E-5                   -1.957929993754103E-10   -3.492062400429906E-10   -2.9873722502918783E-10  -4.542316613377954E-10   -5.923451679122401E-10   -5.492778892934874E-10   -4.1771586266778196E-10  -3.4283677411659146E-10  -3.52698943248128E-10    6.232616682290116E-10    4.709741934861476E-10
2.9999999999999997E-5     -2.547447807931724E-10   -3.802351466664357E-10   -3.0483593595430353E-10  -4.732389923640102E-10   -6.092667829036345E-10   -5.531854673499845E-10   -4.362511309856678E-10   -3.7963000021135324E-10  -3.9964127169758084E-10  6.289088929063004E-10    4.755043619750616E-10
3.05E-5                   -3.180149353884087E-10   -4.044680514379862E-10   -2.982039233090348E-10   -4.788490074337575E-10   -6.074300905807766E-10   -5.31080914440255E-10    -4.3758907023670257E-10  -4.05395513276642E-10    -4.360491781007605E-10   6.089550979986478E-10    4.582657617459205E-10
3.1E-5                    -3.8249276395450497E-10  -4.163411221618459E-10   -2.7568006777290236E-10  -4.712463766038748E-10   -5.786488853841517E-10   -4.793655214226919E-10   -4.1689290275470995E-10  -4.1759986330677473E-10  -4.5660309143336557E-10  5.537877329618099E-10    4.1340339444249026E-10
3.15E-5                   -4.437139329429323E-10   -4.085377681032343E-10   -2.34744270270167E-10    -4.479704601459175E-10   -5.139617607210146E-10   -3.927389035662523E-10   -3.706224164809232E-10   -4.1733796242206366E-10  -4.608797730632539E-10   4.56579338669193E-10     3.379153191012021E-10
3.2E-5                    -4.962215348118934E-10   -3.739196845181052E-10   -1.7360874448740153E-10  -4.01710992071572E-10    -4.095944964776886E-10   -2.665078313515102E-10   -2.9843772797746E-10     -4.052409304111394E-10   -4.50160996970879E-10    3.1525863764817507E-10   2.326157382386172E-10
3.25E-5                   -5.342383861570517E-10   -3.0749784122704393E-10  -9.068767925901276E-11   -3.229272734836595E-10   -2.6634514338951016E-10  -1.0026303969620858E-10  -2.0317947680283472E-10  -3.7781607834439444E-10  -4.2185421215787453E-10  1.3045292363950185E-10   9.990030085318665E-11
3.2999999999999996E-5     -5.524645977909145E-10   -2.0711875198053223E-10  1.5696368703525268E-11   -2.0586758232531762E-10  -8.333492203312244E-11   1.0220264660939697E-10   -8.745117502153547E-11   -3.277619000550358E-10   -3.6766129991690464E-10  -9.689452023704538E-11   -5.997185261301096E-11
3.35E-5                   -5.466942422845522E-10   -7.274603963779823E-11   1.465230110531306E-10    -5.186793958954671E-11   1.446548852280424E-10    3.3721839645044004E-10   5.080253184262014E-11    -2.4748056456795813E-10  -2.779793255825753E-10   -3.658848375782322E-10   -2.5044541869494367E-10
3.4E-5                    -5.138405460328255E-10   9.478602153955921E-11    3.0095071742875134E-10   1.3311528295715178E-10   4.2193025852020664E-10   6.046005564773614E-10    2.1881576052846324E-10   -1.3273084888398196E-10  -1.4863828275588568E-10  -6.757563250257107E-10   -4.763438742602665E-10
3.45E-5                   -4.5132345780528894E-10  2.9447427755809863E-10   4.762803147933832E-10    3.43513312535468E-10     7.45617517892841E-10     9.057551562473813E-10    4.2409525816464855E-10   1.6237363600757278E-11   1.668899256772995E-11    -1.0265144682913388E-9   -7.39370919328801E-10
3.5E-5                    -3.563454424138075E-10   5.247325956554572E-10    6.686937439932396E-10    5.770927889785698E-10    1.1067624422956331E-9    1.2384973386042543E-9    6.682525872684233E-10    1.9663802783332776E-10   2.1112248711617758E-10   -1.417253777799503E-9    -1.0347289071947438E-9
3.5499999999999996E-5     -2.2561955216868947E-10  7.822476482386936E-10    8.729885970439041E-10    8.34467032769441E-10     1.4967945228021879E-9    1.5941028002288999E-9    9.44586159665034E-10     4.059713207353329E-10    4.317157950568784E-10    -1.8411199521290861E-9   -1.351101435120367E-9
3.6E-5                    -5.565438118529092E-11   1.06121365678562E-9      1.0810670489647435E-9    1.1160184542332063E-9    1.909819424634302E-9     1.9588508930300806E-9    1.2402313676635635E-9    6.426280040332263E-10    6.814746313612889E-10    -2.281646398575147E-9    -1.6737260222879014E-9
3.65E-5                   1.5658183022921152E-10   1.3537008782958317E-9    1.281428749514323E-9     1.417476456274609E-9     2.3369791380907863E-9    2.316954408622045E-9     1.5403256541411934E-9    9.039526768130347E-10    9.63681766255374E-10     -2.715297347948336E-9    -1.987863731296352E-9
3.7E-5                    4.128203990344688E-10    1.650615055434441E-9     1.4613343274535847E-9    1.7266585520142055E-9    2.760047278643546E-9     2.6509396348228742E-9    1.8316532447578363E-9    1.1845510239917542E-9    1.2742775700559838E-9    -3.117889972582449E-9    -2.2798698253512584E-9
3.75E-5                   7.128001413318735E-10    1.9417891087593918E-9    1.6099276672505379E-9    2.0244976439655535E-9    3.1526477297167137E-9    2.939785399685423E-9     2.104189770110099E-9     1.4767815095833668E-9    1.6003233446145308E-9    -3.468063551720793E-9    -2.5359150182204783E-9
3.7999999999999995E-5     1.0539741321099283E-9    2.2144480663081265E-9    1.7189377214187244E-9    2.290115072210107E-9     3.4878150033394953E-9    3.1589291707995923E-9    2.3495450510825454E-9    1.7721627616884565E-9    1.9257987409855074E-9    -3.745328028288773E-9    -2.7409162157666743E-9
3.85E-5                   1.4312108111476165E-9    2.4512437427811008E-9    1.7801445835509844E-9    2.5052910531301106E-9    3.743193052042443E-9     3.2846372792814934E-9    2.5568958449729075E-9    2.061676324451235E-9     2.2377742232107657E-9    -3.926939563792734E-9    -2.8791379409602735E-9
3.9E-5                    1.8357308151948246E-9    2.6302116236751613E-9    1.7826390915469529E-9    2.654497571356249E-9     3.899093801329017E-9     3.2995765309674195E-9    2.7093904894448276E-9    2.3347990786459945E-9    2.5260517588005728E-9    -3.988042329851997E-9    -2.9351671071554827E-9
3.95E-5                   2.2535395000427374E-9    2.7276268864379767E-9    1.7132811376260717E-9    2.7220543734752376E-9    3.933690607062238E-9     3.193544706156232E-9     2.784394522606409E-9     2.577966181623297E-9     2.77749236545494E-9      -3.9043957889398435E-9   -2.8937131071466226E-9
3.9999999999999996E-5     2.664972396765047E-9     2.7218340372072034E-9    1.5600988870244235E-9    2.690818458270229E-9     3.822083958253453E-9     2.957825474806535E-9     2.758103988592646E-9     2.7728396724559643E-9    2.972303523216383E-9     -3.6543592986783316E-9   -2.738850464776608E-9
4.0499999999999995E-5     3.0464627627026465E-9    2.594931404001748E-9     1.3151422642655597E-9    2.544083268132004E-9     3.540136883832205E-9     2.579112275641475E-9     2.6115283738841783E-9    2.8957613620752566E-9    3.0863814054194883E-9    -3.219199570284917E-9    -2.454425879532108E-9
4.1E-5                    3.3734187750704706E-9    2.331489202187325E-9     9.744597158795331E-10    2.268524375439171E-9     3.0685717964303455E-9    2.0400539167512038E-9    2.333948189777846E-9     2.9207726198763664E-9    3.0963781752560933E-9    -2.583518590091155E-9    -2.0261927170957847E-9
4.15E-5                   3.621952027535665E-9     1.9170323964871818E-9    5.3667575035819E-10      1.8555748126013879E-9    2.394180570346929E-9     1.3262400641409344E-9    1.9220420011240954E-9    2.8259073969484056E-9    2.9822716411815987E-9    -1.737028222073986E-9    -1.4447219682752836E-9
4.2E-5                    3.7685833154901846E-9    1.3396799367110193E-9    3.0069596491719516E-12   1.3008509000480703E-9    1.5096056233859102E-9    4.3287366738070073E-10   1.3757719714689648E-9    2.5979895465728574E-9    2.726986967936245E-9     -6.769739527616073E-10   -7.077708982489891E-10
4.2499999999999996E-5     3.789091026695821E-9     5.948481877273808E-10    -6.209840126098532E-10   6.032841525204762E-10    4.1427177360809435E-10   -6.336030279138954E-10   6.941477531080209E-10    2.231372973802189E-9     2.316297600924003E-9     5.898047672846966E-10    1.7865693346153285E-10
4.2999999999999995E-5     3.658154382657382E-9     -3.110215419757975E-10   -1.3240131573898418E-9   -2.3405525460545483E-10  -8.836909629719165E-10   -1.8569089713632312E-9   -1.253860708846252E-10   1.7220222551919512E-9    1.7403340215805914E-9    2.045391475957165E-9     1.200547824400742E-9
4.35E-5                   3.3506174263156388E-9    -1.3613306575042883E-9   -2.0891222014106984E-9   -1.2010236149332512E-9   -2.3662442596673707E-9   -3.210978510508327E-9    -1.0821174340112996E-9   1.0631610359046385E-9    9.949327265106643E-10    3.660051715339874E-9     2.3369232115191423E-9
4.4E-5                    2.8442650269001052E-9    -2.5336146831548963E-9   -2.893804635148021E-9    -2.277390166231332E-9    -4.0050315347150186E-9   -4.658010570035841E-9    -2.164770848409334E-9    2.4699181177808065E-10   8.173879387573564E-11    5.392853404244949E-9     3.561253536983829E-9
4.45E-5                   2.1231006647668155E-9    -3.802379114881617E-9    -3.7091695820643985E-9   -3.4325488150250014E-9   -5.7605919359112076E-9   -6.147737915326411E-9    -3.3482943242675E-9      -7.286596329529017E-10   -9.91629263774557E-10    7.193728534295468E-9     4.842849122494547E-9
4.4999999999999996E-5     1.1794284857662181E-9    -5.137327717661068E-9    -4.499586784055572E-9    -4.628247436580982E-9    -7.581658985613955E-9    -7.620900961291935E-9    -4.598033611581415E-9    -1.8536630889145632E-9   -2.210413703287861E-9    9.005648715342627E-9     6.147394238097828E-9
4.5499999999999995E-5     1.3817853631823023E-11   -6.498775851568762E-9    -5.2248308615109605E-9   -5.821302983467476E-9    -9.406520376852142E-9    -9.016314952406731E-9    -5.876554787369992E-9    -3.1033689757394344E-9   -3.5517757729264268E-9   1.0765239715686959E-8    7.4357568102172594E-9
4.6E-5                    -1.3656590244414907E-9   -7.834546543958012E-9    -5.844164595580644E-9    -6.9634513414462394E-9   -1.1166603216070974E-8   -1.0277061453795332E-8   -7.145387683666071E-9    -4.4421530164133166E-9   -4.985029724461103E-9    1.2401910649848864E-8    8.661751433250846E-9
4.65E-5                   -2.9423728175851936E-9   -9.080739729577269E-9    -6.31948049291867E-9     -7.999490355031507E-9    -1.2789649532416374E-8   -1.1350957053392869E-8   -8.360692601866952E-9    -5.829987762150021E-9    -6.471707213547572E-9    1.3837691920827504E-8    9.77142426192698E-9
4.7E-5                    -4.687901510058012E-9    -1.0165538990205844E-8   -6.6155786254128785E-9   -8.86792344442627E-9     -1.4200373984146624E-8   -1.2185429413518223E-8   -9.469824276644989E-9    -7.2269418900543075E-9   -7.964372314814306E-9    1.498984645354585E-8     1.0705865187780526E-8
4.7499999999999996E-5     -6.559466946293142E-9    -1.1014006227705601E-8   -6.698713147135102E-9    -9.506361986270908E-9    -1.5319811414648138E-8   -1.2722977952027687E-8   -1.0414448556737457E-8   -8.592143539116737E-9    -9.406246438266031E-9    1.577604711643431E-8     1.1406468878431211E-8
4.8E-5                    -8.500716161440385E-9    -1.1552681843457324E-8   -6.536419652113307E-9    -9.85897283710474E-9     -1.606638280587506E-8    -1.290310187799781E-8    -1.1137493964781893E-8   -9.878604606446794E-9    -1.0734225508140835E-8   1.61202550379672E-8      1.181955102459563E-8
4.85E-5                   -1.0444700226714899E-8   -1.1713833490441149E-8   -6.100659575011067E-9    -9.881024102128584E-9    -1.636031612380247E-8    -1.2669789996512826E-8   -1.1587208979422657E-8   -1.1029020703883238E-8   -1.1883723506642089E-8   1.595775351767209E-8     1.1898679696375273E-8