% Model:              Untitled.mph
% Version:            COMSOL 6.0.0.405
% Date:               Jul 17 2025, 06:17
% Dimension:          1
% Nodes:              401
% Expressions:        11
% Description:        Point graph
% Time (s)                Displacement field, Y component Displacement field, Y component Displacement field, Y component Displacement field, Y component Displacement field, Y component Displacement field, Y component Displacement field, Y component Displacement field, Y component Displacement field, Y component Displacement field, Y component Displacement field, Y component
0                         2.239519472193087E-38    6.775508498613078E-37    -2.2721607198034992E-35  1.6891751922137572E-35   8.853560998118331E-35    2.491519798040329E-34    3.780674014811372E-33    6.139211633153361E-33    -7.6790015645507E-34     -2.246366060783681E-34   -2.5866369095086596E-33
5.0E-7                    -2.6996280784712387E-30  6.185122626157232E-29    -4.85679586315409E-26    -4.368499803334014E-27   -7.20992016460278E-27    -3.613523536688809E-26   -5.86303266279917E-25    -8.196543450779519E-25   1.0111875651802591E-25   4.869293664869279E-26    3.9345469763331055E-25
1.0E-6                    -9.940943494847107E-31   -1.6985153798420296E-27  1.841965974617713E-26    2.308956412031117E-26    -2.691544142455922E-26   5.914302057511445E-26    1.1599163920511446E-24   2.8828650544530548E-24   -1.259765226819717E-25   -2.1915648546005504E-25  -8.131488729399385E-25
1.5E-6                    1.3727203110457678E-29   8.379319346523227E-27    2.783042480680539E-24    8.132502128784976E-27    1.5219404626923488E-25   -1.26648264176711E-25    -5.881715533739309E-25   -3.525655355691218E-24   -1.328554540480203E-25   5.704158880440943E-25    1.3476894606706842E-24
2.0E-6                    -5.2910452200348854E-30  -1.5968101624304054E-26  -1.2855760691269656E-23  -3.0445592564357695E-25  -7.63243944064437E-25    4.2047948568762455E-25   -7.244367606096786E-24   -5.717321744650954E-23   6.770931715978337E-24    -9.652327639426364E-26   2.786079008760197E-24
2.4999999999999998E-6     6.031622464465473E-29    -2.9051914905752496E-26  2.1393486086738332E-23   3.3097798703661594E-25   2.023147062511839E-24    -7.307966366814008E-25   4.019514127916562E-24    5.101814978601644E-23    -1.1448097989550295E-23  -5.381985125436383E-24   -1.076913674205069E-23
3.0E-6                    -1.5458899182780399E-28  2.0133655735087722E-25   4.9014426555130885E-24   7.458051052824077E-26    -1.850178545974585E-25   -2.423023523163758E-24   4.402937287079841E-23    5.2237612393146515E-22   -8.431489326793623E-23   3.135487730784226E-23    5.5970775958092946E-24
3.5E-6                    4.0635441375493595E-28   -4.477881375851586E-26   -1.790314391205232E-22   2.061413920624041E-24    -8.764324903866435E-24   1.0838883572403933E-23   5.456766252159467E-23    -2.6387418589615764E-22  2.1824723163066795E-22   -2.0981411164553248E-23  -5.138823220709787E-23
4.0E-6                    -1.4769882349074954E-27  -1.0744396454941819E-24  4.95058241274549E-22     6.656271915974494E-24    3.132944368841362E-23    -7.179465803887275E-24   -4.742991387925692E-22   -3.991196795472369E-21   7.385922314883562E-22    -1.6402197018422864E-22  -2.6123265872303285E-23
4.5E-6                    5.490863005700868E-27    3.6721392202889585E-25   7.476902026619201E-22    -2.596393708416E-23      5.734981873484747E-25    1.0228077722678948E-22   -7.782362549848192E-23   5.212332186674929E-21    -1.0924174120670895E-21  1.7375991782717672E-22   2.1283620946415675E-22
4.9999999999999996E-6     6.34986039732206E-27     1.874493775942331E-24    -4.075494628333584E-21   -7.330745424675054E-23   -2.1665243749230898E-22  2.593688610993946E-22    6.064838777545157E-21    5.0260985113695956E-20   -3.7521243852041455E-21  4.2500690042121985E-22   -5.649903686332467E-22
5.5E-6                    -6.751669972311419E-26   2.9539256156373955E-24   -3.4126993421695156E-21  9.781033641202578E-23    6.043751318321411E-23    -2.690983586393584E-22   1.8128566657349377E-20   5.558709437068407E-20    1.5575890955760404E-20   -6.540911883833854E-22   -2.8590473067005464E-21
6.0E-6                    2.2201614377563372E-26   1.9416517350650422E-23   2.0290291775112946E-20   5.484711762527821E-22    9.936308978456385E-22    -2.169503641185138E-22   2.2141283262513663E-20   -1.2279264112586154E-19  9.059485657507376E-20    -1.7936751796202347E-21  -1.1803452871583103E-20
6.5E-6                    3.747998391066894E-25    -3.6157561627106304E-23  1.8293488364854325E-20   2.242441981701549E-22    1.6908983088645711E-21   5.279703684699863E-21    5.318454878253958E-20    6.238764454654505E-20    1.7146628884747326E-19   -2.79297572367029E-22    -5.619778155492081E-20
7.0E-6                    -6.23819538701294E-26    -2.505122894503863E-22   -7.077750722924321E-20   -2.4829518886566515E-21  -1.6694612659025295E-22  2.833951261078082E-20    3.394645705297991E-19    2.2970540697743946E-18   1.573674903550891E-19    1.2234111803964213E-20   -1.9020380607486806E-19
7.499999999999999E-6      -9.267523171927548E-25   8.826310775251313E-23    -8.278963842451074E-20   -4.151879646651909E-21   -1.2198172441836638E-20  8.979570844298647E-20    1.3374899029072117E-18   5.614286216702107E-18    7.092438508914763E-19    2.6343591829698186E-20   -5.055715301622193E-19
8.0E-6                    -1.4623644954972556E-24  1.751077776797414E-21    1.7485302125151668E-19   7.306046140406987E-21    -5.416947883786096E-21   1.9892449189500791E-19   3.766849901783943E-18    3.768437313251491E-18    4.080285437722196E-18    -7.440950629845206E-20   -1.1910183212041915E-18
8.5E-6                    -2.5742596087538354E-24  1.3322399466676947E-21   2.6548232900179674E-19   2.7690883213336296E-20   1.1024425701552684E-19   4.710401322017198E-19    9.087726560796803E-18    6.393785505399285E-18    1.257398264160854E-17    -3.5165277504620107E-19  -3.471991086764634E-18
9.0E-6                    3.2520735320115283E-23   -6.7009712593065084E-21  -3.190745734399983E-19   3.1907284149691507E-21   2.2937814462833776E-19   1.7372886154188324E-18   2.3533424943919213E-17   6.722890272579153E-17    3.038938741839496E-17    -2.6509813804309803E-19  -1.3961636139459138E-17
9.499999999999999E-6      1.45610242068985E-22     -1.0639592436807924E-20  -5.646726733142439E-19   -8.147699600943828E-20   -2.4298165987834386E-20  6.496719765890719E-18    7.347464305899694E-17    2.2808246578963005E-16   7.941220125828992E-17    5.250842301976179E-19    -4.8959275324565436E-17
9.999999999999999E-6      9.441267294436088E-23    2.2433432487950947E-20   6.703998179593239E-19    -3.1473801117845167E-20  -1.5007894670085035E-19  1.9510802813197488E-17   2.2349507955089674E-16   4.3265350240554983E-16   2.158140319883775E-16    -9.725850381952437E-19   -1.275832522067732E-16
1.05E-5                   -2.6679236848765898E-22  8.147757984002756E-20    1.0941440347003489E-18   3.4695223891456783E-19   1.9813988309648044E-18   5.0818644569209386E-17   5.82952854765551E-16     7.93225424630376E-16     5.562164439896669E-16    -1.0124558476100513E-17  -2.888787012183855E-16
1.1E-5                    1.1605777606950998E-21   6.267938136744447E-20    -1.6860091237840606E-18  6.67029922561916E-19     7.480390461729954E-18    1.3397375948478656E-16   1.4283801076898537E-15   2.2691776479607543E-15   1.4439366292311138E-15   -2.5803998341261724E-17  -7.574125044300262E-16
1.15E-5                   8.30015294302052E-21     -4.6202448334378203E-20  -2.0604154043997696E-18  3.863484614741909E-19    1.5244007866259396E-17   3.7470183449617117E-16   3.693999000190385E-15    6.7561619964565845E-15   3.852022169409794E-15    -4.764625258156354E-17   -2.2823508038656014E-15
1.2E-5                    1.9492407857367217E-20   1.489193424092259E-19    7.345247967727058E-18    6.71932607796002E-19     3.1586538368993205E-17   1.0289270734189134E-15   9.734913777234271E-15    1.6262585531297255E-14   9.843267434185217E-15    -1.2433821053245332E-16  -6.3531059065360735E-15
1.2499999999999999E-5     3.306697834374176E-20    1.3592331120483232E-18   1.9171074655327475E-17   4.8909583845179956E-18   8.40731377968665E-17     2.6561749104328482E-15   2.422892614755537E-14    3.442461930986864E-14    2.3301322545445826E-14   -3.9209604451038275E-16  -1.5397729006953422E-14
1.3E-5                    9.328659506915243E-20    4.147932328374016E-18    2.1603447867249025E-17   1.6356841863309415E-17   2.2747098050848273E-16   6.6140281164656865E-15   5.6838656960027095E-14   7.39747541641093E-14     5.293582298928553E-14    -1.0567647856275779E-15  -3.5013410168636745E-14
1.35E-5                   3.3381605891660556E-19   9.234148633221199E-18    3.1050820714974154E-17   3.8812194708903715E-17   5.722442524138818E-16    1.6309610104829068E-14   1.2956164346276668E-13   1.6593407146635252E-13   1.2042202991332504E-13   -2.534138285710397E-15   -8.10002823028069E-14
1.4E-5                    9.777715880572832E-19    1.9930151535495512E-17   9.388020516181722E-17    8.624228886177897E-17    1.3911807596522075E-15   3.933782528155055E-14    2.893194058987524E-13    3.632558301303455E-13    2.728274917314981E-13    -6.10384421507768E-15    -1.8913253977261454E-13
1.45E-5                   2.520253061454311E-18    4.8459034746018877E-17   2.8453756095166225E-16   2.0362878341011382E-16   3.3046751672197504E-15   9.084146417295086E-14    6.256878728529687E-13    7.47669833466492E-13     5.946147572975274E-13    -1.495613627176346E-14   -4.2161003101000314E-13
1.4999999999999999E-5     6.441403689630463E-18    1.2765956766696664E-16   7.802108515657874E-16    5.032386904739945E-16    7.595989302070113E-15    2.0074470895520264E-13   1.2977157261308983E-12   1.4581567306149024E-12   1.22368211114723E-12     -3.5322310737090244E-14  -8.767247313590284E-13
1.55E-5                   1.6445407662589033E-17   3.253206171250432E-16    1.905354765992478E-15    1.2343419746037024E-15   1.70359116256337E-14     4.292799282935999E-13    2.5676018800772035E-12   2.7321392999919214E-12   2.3949913175641334E-12   -7.894500724172449E-14   -1.7255472573788314E-12
1.6E-5                    4.091039936361005E-17    7.671017266252865E-16    4.007245128608831E-15    2.932191567923763E-15    3.772404217686513E-14    8.89742865144664E-13     4.82696923002145E-12     4.9338651899833795E-12   4.525844482292909E-12    -1.697521701710165E-13   -3.2736415191580343E-12
1.6499999999999998E-5     1.0003458671559458E-16   1.718213786051282E-15    7.60779814581864E-15     6.73941911303638E-15     8.18887359055749E-14     1.768227772424044E-12    8.61502462301639E-12     8.577077453407326E-12    8.283496340705251E-12    -3.5536538581367897E-13  -5.98216215698467E-12
1.7E-5                    2.422818547823429E-16    3.795683850252767E-15    1.4719460112941353E-14   1.500263105743584E-14    1.7158886288746306E-13   3.335066468693591E-12    1.4603153903498614E-11   1.4300748289816885E-11   1.4475930604632583E-11   -7.200059804088511E-13   -1.0377130770050067E-11
1.75E-5                   5.732495444811531E-16    8.309919205376401E-15    3.117530056705787E-14    3.228983122912537E-14    3.4551137874305164E-13   5.957242628892955E-12    2.3347411534837035E-11   2.258756977809108E-11    2.3615757798688497E-11   -1.3972504314842112E-12  -1.6842998759844168E-11
1.8E-5                    1.310353415536796E-15    1.775078960803578E-14    6.77159031207442E-14     6.747737842177213E-14    6.726089283329567E-13    1.0092541143753446E-11   3.455967643609427E-11    3.3141206112151726E-11   3.528277949741594E-11    -2.586475694192782E-12   -2.5306546730105156E-11
1.85E-5                   2.9070612491967555E-15   3.677906269379932E-14    1.375108320143524E-13    1.3827629544488815E-13   1.2709492304519905E-12   1.6155244899885494E-11   4.627489176517227E-11    4.4490446125387545E-11   4.7868328509174454E-11   -4.566771846175261E-12   -3.483036308717987E-11
1.8999999999999998E-5     6.3100012094984385E-15   7.425746645065968E-14    2.534261529875377E-13    2.784392868583341E-13    2.3206628073982076E-12   2.4120034195408214E-11   5.5168856124765216E-11   5.463450364054138E-11    5.93211201692571E-11     -7.667172821103845E-12   -4.3433585148913365E-11
1.95E-5                   1.3404184723026597E-14   1.4603321910480126E-13   4.369710800179942E-13    5.444650286530363E-13    4.059244408933481E-12    3.296339389032185E-11    5.866517384709928E-11    6.238780285310731E-11    6.85088434616333E-11     -1.2123147378584541E-11  -4.874550699460739E-11
1.9999999999999998E-5     2.7743172419300088E-14   2.7742845072768824E-13   7.464441816274691E-13    1.0192703342058564E-12   6.751069275586087E-12    4.045510801586006E-11    5.7025196340708025E-11   6.775435293466512E-11    7.552399649986878E-11    -1.7789493450005617E-11  -4.9433648431579304E-11
2.05E-5                   5.578847220109294E-14    5.063492100342043E-13    1.3000112727642778E-12   1.8201229801647403E-12   1.0599294180096272E-11   4.391705176351933E-11    5.2564265077049874E-11   7.056344087872816E-11    7.988532752478041E-11    -2.382990037064977E-11   -4.598980300080028E-11
2.1E-5                    1.0888625888148342E-13   8.910205148238656E-13    2.2380704256277213E-12   3.121488399487408E-12    1.5532414580412895E-11   4.186127052380218E-11    4.629092269157427E-11    6.914378682890375E-11    7.855629245195509E-11    -2.869567431894917E-11   -3.9594201091839153E-11
2.1499999999999997E-5     2.0596382191001252E-13   1.5217581125221615E-12   3.6060638879536737E-12   5.17164337344738E-12     2.0876463885056647E-11   3.519006139444735E-11    3.6174139284071537E-11   6.118657866207925E-11    6.721844752587589E-11    -3.0705602298639476E-11  -3.0216140432976416E-11
2.2E-5                    3.769003536314328E-13    2.5192001526189448E-12   5.249073228217722E-12    8.225397919851572E-12    2.5189152431295562E-11   2.630474161678027E-11    1.9582037418134224E-11   4.5828841669738526E-11   4.457449933735362E-11    -2.9089483956117066E-11  -1.6592792417022954E-11
2.2499999999999998E-5     6.668589029886702E-13    3.989350137978136E-12    6.856134028459738E-12    1.2316353448755984E-11   2.6694871493709364E-11   1.6315887543494125E-11   -3.544933744906891E-12   2.3643190475926312E-11   1.421084903532003E-11    -2.462875682980755E-11   1.7601390122495176E-12
2.3E-5                    1.1405912273376483E-12   5.93070066635295E-12     8.143604024566993E-12    1.693711243538495E-11    2.4334409745874258E-11   3.2880737330183256E-12   -3.1565841060353654E-11  -6.197126368401224E-12   -1.9930232857081464E-11  -1.8890750765683022E-11  2.3686718807964706E-11
2.35E-5                   1.880565875832514E-12    8.15029081738997E-12     8.956908107561209E-12    2.0926567626596563E-11   1.8585798388287247E-11   -1.5770327909952908E-11  -6.473882249479702E-11   -4.768847938892052E-11   -5.986320890611147E-11   -1.2303264813106712E-11  4.8490441547849204E-11
2.4E-5                    2.967551701585908E-12    1.0275782190919587E-11   9.124873264212643E-12    2.289989522502546E-11    1.1032013733320845E-11   -4.0994581210275755E-11  -1.0596914286207338E-10  -1.051401069132498E-10   -1.1299053834238736E-10  -3.083032133864816E-12   7.815350086610985E-11
2.45E-5                   4.438167546772182E-12    1.187571924889322E-11    8.256059074127054E-12    2.2114299904976453E-11   2.84866034283177E-12     -6.912381547154451E-11   -1.5766373998574307E-10  -1.7822271671647797E-10  -1.8405968817868296E-10  1.1196076166970842E-11   1.1614836017875817E-10
2.4999999999999998E-5     6.235585671936723E-12    1.2571676176977374E-11   5.853409060111232E-12    1.897324593015141E-11    -6.252039347228481E-12   -9.787004784859681E-11   -2.1963004535159344E-10  -2.6121305169451817E-10  -2.694025168825342E-10   3.0706211446236165E-11   1.640409736480326E-10
2.55E-5                   8.18885277509936E-12     1.2020480917749463E-11   1.7600462476485665E-12   1.4352102144930938E-11   -1.748706565743689E-11   -1.294950014657748E-10   -2.906018998494242E-10   -3.4799975858563913E-10  -3.607869172705462E-10   5.288192471707363E-11    2.200844129389482E-10
2.6E-5                    1.0042979052288121E-11   9.825723253511535E-12    -3.569979169055519E-12   8.16451173047249E-12     -3.1627293777869636E-11  -1.6809768032976349E-10  -3.696461438068797E-10   -4.3694030673922117E-10  -4.535309448312076E-10   7.559717754435051E-11    2.81015349508554E-10
2.65E-5                   1.1516059694249353E-11   5.579671746224642E-12    -9.382320770282685E-12   -1.0748508083356504E-12  -4.8394591530574416E-11  -2.1399290861510854E-10  -4.54324677425989E-10    -5.298124666431136E-10   -5.483870893647079E-10   1.0005302424658213E-10   3.4423163337427525E-10
2.7E-5                    1.2332848904940615E-11   -9.105541338152464E-13   -1.5222299221011395E-11  -1.4642526119075077E-11  -6.703673968310832E-11   -2.6310240309617766E-10  -5.387085350041261E-10   -6.266452269449403E-10   -6.460420624120596E-10   1.2908201374444262E-10   4.0786816959914877E-10
2.7499999999999998E-5     1.2224397587008768E-11   -9.438534406858326E-12   -2.1192899392687626E-11  -3.1580850748249573E-11  -8.715923221390651E-11   -3.117077229736417E-10   -6.152565993734277E-10   -7.226088852165755E-10   -7.42756780890113E-10    1.6276858908491495E-10   4.69312712548499E-10
2.8E-5                    1.094784694126242E-11    -1.9474995744019098E-11  -2.7741610704378637E-11  -4.910896487681395E-11   -1.0908539229701769E-10  -3.5863350602516436E-10  -6.786925855201955E-10   -8.09432687314735E-10    -8.322197855132608E-10   1.9739637772222815E-10   5.242984001420163E-10
2.8499999999999998E-5     8.358303993373362E-12    -3.041115070319447E-11   -3.53604783777096E-11    -6.56247696229362E-11    -1.3362349803658627E-10  -4.014628186417463E-10   -7.270894913797065E-10   -8.786550614289215E-10   -9.089889165617752E-10   2.2916197582803902E-10   5.679544074376863E-10
2.9E-5                    4.444723845481689E-12    -4.1732302960584307E-11  -4.431893224643097E-11   -8.277254291848142E-11   -1.6104611008245274E-10  -4.3383019303175747E-10  -7.593337508541256E-10   -9.2366650285439E-10     -9.678126873715037E-10   2.5733487942519623E-10   5.969453547373195E-10
2.95E-5                   -7.99925548726059E-13    -5.309398124780827E-11   -5.4203174057465615E-11  -1.0362606415986364E-10  -1.8956739957427092E-10  -4.4984403224236916E-10  -7.72031192257399E-10    -9.396912579681858E-10   -1.0005604039001618E-9   2.8271352862305314E-10   6.097954257109393E-10
2.9999999999999997E-5     -7.621306665789306E-12   -6.436862216448641E-11   -6.356691684922912E-11   -1.2872342102645205E-10  -2.1507350372819134E-10  -4.4973826351442324E-10  -7.582200303834922E-10   -9.220067768848179E-10   -9.960100028047546E-10   3.041632998839402E-10    6.038987214911513E-10
3.05E-5                   -1.6576957687793975E-11  -7.549238143916836E-11   -7.05497221364839E-11    -1.5443436530628077E-10  -2.3356144458027645E-10  -4.369754715730494E-10   -7.084526889483341E-10   -8.637664043974445E-10   -9.430982558227039E-10   3.180708650381185E-10    5.724896032942073E-10
3.1E-5                    -2.8240329609743426E-11  -8.597600720249916E-11   -7.43616659946604E-11    -1.7539764826012969E-10  -2.4432946257118236E-10  -4.0906194821083567E-10  -6.139468350265782E-10   -7.558447791363223E-10   -8.33679381896242E-10    3.2057049359291785E-10   5.063648657841351E-10
3.15E-5                   -4.27370290714703E-11    -9.458008633595488E-11   -7.594832285875413E-11   -1.883504480440073E-10   -2.497433479780781E-10   -3.549997755964421E-10   -4.695829555874709E-10   -5.893627748044601E-10   -6.622611756436924E-10   3.0891046458962373E-10   3.994108253792468E-10
3.2E-5                    -5.955258944184389E-11   -9.991334018387423E-11   -7.661053084408876E-11   -1.938614720716524E-10   -2.5084072219586083E-10  -2.6439065750499006E-10  -2.734510267246764E-10   -3.58136038120367E-10    -4.2393868780100677E-10  2.8090308562869586E-10   2.5129290880762866E-10
3.25E-5                   -7.777602667678586E-11   -1.0166369848049086E-10  -7.5941515316675E-11     -1.950476398706142E-10   -2.4365589557836053E-10  -1.3679432566265142E-10  -2.3416341821316386E-11  -5.850884748714681E-11   -1.129790450717998E-10   2.34480374744602E-10     6.393655566815665E-11
3.2999999999999996E-5     -9.647818763133536E-11   -1.009313779386227E-10   -7.165558120238207E-11   -1.946292429952894E-10   -2.2099543129892228E-10  2.1030479725645287E-11   2.8435038732535397E-10   3.120386817770487E-10    2.7651988127940054E-10   1.6801689844526252E-10   -1.633670970943215E-10
3.35E-5                   -1.1484673726668027E-10  -9.876284050947748E-11   -6.162317446739994E-11   -1.9223867086323886E-10  -1.777678799989072E-10   2.058332221330059E-10    6.524445272272468E-10    7.546234163830494E-10    7.47813912155756E-10     7.991482697176844E-11    -4.338493020147483E-10
3.4E-5                    -1.3204215723938766E-10  -9.421691962588028E-11   -4.555289725365992E-11   -1.8358806080768084E-10  -1.1357601878085795E-10  4.2187732300686625E-10   1.0787346028485576E-9    1.2670888165133596E-9    1.2977545911854058E-9    -3.237006209982383E-11   -7.485932114475471E-10
3.45E-5                   -1.4701046720416388E-10  -8.424598807471817E-11   -2.4245367496694533E-11  -1.620467765871485E-10   -3.01923132171725E-11    6.735171552671297E-10    1.5560235857215068E-9    1.8426914549310954E-9    1.9144689663452705E-9    -1.7133951356648112E-10  -1.1030946438166634E-9
3.5E-5                    -1.5842523369391905E-10  -6.574268782562451E-11   2.425516118472823E-12    -1.2150006188983473E-10  7.175235358756936E-11    9.566729562213417E-10    2.072916418330859E-9     2.4696278450205282E-9    2.5787601741974693E-9    -3.363672789319271E-10   -1.4882799599638588E-9
3.5499999999999996E-5     -1.6476491908650387E-10  -3.753378216052355E-11   3.601217364034761E-11    -5.871198794017908E-11   1.9238132924337835E-10   1.2590848404550389E-9    2.613207603434894E-9     3.1299469978740145E-9    3.2689714789408363E-9    -5.22492941154725E-10    -1.8934403645747054E-9
3.6E-5                    -1.6448361236901504E-10  -1.7617334087791272E-13  7.77402276987186E-11     2.5516409806640213E-11   3.3011183053515845E-10   1.5667330530581123E-9    3.1561468307290115E-9    3.798423665735041E-9     3.965163870171885E-9     -7.233584908062795E-10   -2.307003491552834E-9
3.65E-5                   -1.5621441137798144E-10  4.594962979912907E-11    1.2672958979899076E-10   1.2641188943588484E-10   4.81790476851837E-10     1.8677811975486435E-9    3.680259762484508E-9     4.444136177190766E-9     4.647639903853792E-9     -9.343780325987198E-10   -2.7145650266347456E-9
3.7E-5                    -1.388784112443118E-10   1.0182182714355319E-10   1.804273345025978E-10    2.3727222700546417E-10   6.455786775756148E-10    2.1512161167565545E-9    4.166738915147385E-9     5.034939894477728E-9     5.290185300997413E-9     -1.1513238123974425E-9   -3.0972339277555496E-9
3.75E-5                   -1.1159802697847761E-10  1.6880418440317945E-10   2.365930868700917E-10    3.5372722613255307E-10   8.216622664991367E-10    2.403976634627601E-9     4.596208919330612E-9     5.540502227891681E-9     5.85499773046057E-9      -1.3661545689740425E-9   -3.432883092567585E-9
3.7999999999999995E-5     -7.348620506576552E-11   2.4662516937692915E-10   2.941848773718802E-10    4.77262652779147E-10     1.0081932365378237E-9    2.610114979461877E-9     4.9408322206284895E-9    5.930038107586502E-9     6.295401997226191E-9     -1.5661969131471188E-9   -3.6991328911235144E-9
3.85E-5                   -2.3513598618200075E-11  3.3253020968865826E-10   3.520259570253013E-10    6.135122690816792E-10    1.1966061761681282E-9    2.7521807810131234E-9    5.16146235046673E-9      6.16689454826723E-9      6.564308216647512E-9     -1.7380709423228868E-9   -3.874731723898325E-9
3.9E-5                    3.9385137042298427E-11   4.224323016841331E-10    4.071039998337303E-10    7.651925351435122E-10    1.3719942513232382E-9    2.8131819393150547E-9    5.2150705252511085E-9    6.20658070748671E-9      6.620957979091324E-9     -1.871144196879383E-9    -3.93845890365831E-9
3.95E-5                   1.1593395124337851E-10   5.126707812247992E-10    4.5473812523773217E-10   9.258423276647906E-10    1.5184257418035604E-9    2.777036562893892E-9     5.065988001804242E-9     6.002299775878434E-9     6.43145028362483E-9      -1.9563826692315607E-9   -3.868255186099773E-9
3.9999999999999996E-5     2.0600214089262224E-10   6.003600273296384E-10    4.90267454013522E-10     1.0804958997131144E-9    1.6239043180898404E-9    2.6269082243975964E-9    4.690560478462769E-9     5.514754425636886E-9     5.964727680846933E-9     -1.983060488949463E-9    -3.6426684940174817E-9
4.0499999999999995E-5     3.0829328709273663E-10   6.819162999299036E-10    5.100826827938237E-10    1.2123986493041788E-9    1.6812534889397009E-9    2.3447831537207043E-9    4.072941565944429E-9     4.718151369327325E-9     5.188996580179187E-9     -1.9382913875730745E-9   -3.243187307177943E-9
4.1E-5                    4.2056735852533405E-10   7.514731970897675E-10    5.110924802676898E-10    1.3093301358290672E-9    1.685868422030497E-9     1.9165396218795054E-9    3.199078777202572E-9     3.597762722429776E-9     4.07335653017148E-9      -1.8099262768175237E-9   -2.6554409174590803E-9
4.15E-5                   5.402473020402762E-10    8.011810860410177E-10    4.899212185288798E-10    1.3650026725410145E-9    1.6327676675233068E-9    1.339584070143919E-9     2.0561114885319E-9       2.1440644273486076E-9    2.5960860274613366E-9    -1.5889157582569382E-9   -1.8699430767344195E-9
4.2E-5                    6.646899452184871E-10    8.233770162254125E-10    4.432096355926364E-10    1.3764661214834554E-9    1.5141918269760833E-9    6.232885331738398E-10    6.376484497949087E-10    3.5333326601744666E-10   7.548846768459853E-10    -1.2688604192363106E-9   -8.837327899667817E-10
4.2499999999999996E-5     7.905509945392296E-10    8.124821957848109E-10    3.686833162808844E-10    1.3406925983125322E-9    1.3190628877304873E-9    -2.2095282064446936E-10  -1.049764592289495E-9    -1.7632724653848658E-9   -1.429321893676152E-9    -8.451518260335688E-10   2.980410633332535E-10
4.2999999999999995E-5     9.126168967792794E-10    7.647617785454945E-10    2.65673573979249E-10     1.2521397472220871E-9    1.0359512513426658E-9    -1.1886109347203464E-9   -2.9835739982820715E-9   -4.171900391575718E-9    -3.918298501863229E-9    -3.1660132666268916E-10  1.6619423777628565E-9
4.35E-5                   1.0232099511452262E-9    6.765768432142295E-10    1.3448063949722788E-10   1.1020119275723907E-9    6.582847891317371E-10    -2.2768573843597256E-9   -5.1267015311545155E-9   -6.8184524347664356E-9   -6.665128885018644E-9    3.118500824692261E-10    3.18634579320979E-9
4.4E-5                    1.112947494112308E-9     5.435018118158655E-10    -2.4737514701492725E-11  8.798944976555453E-10    1.8695586784468664E-10   -3.4692101057513304E-9   -7.43110055503126E-9     -9.637088892158509E-9    -9.615189925234345E-9    1.0289089749527663E-9    4.840328451579687E-9
4.45E-5                   1.1725506959079564E-9    3.614785890666167E-10    -2.1223900730297507E-10  5.772414586985189E-10    -3.72345879167482E-10    -4.727358900156427E-9    -9.8398626966649E-9      -1.2553262046336374E-8   -1.2697783501732724E-8   1.8192063293589E-9       6.582762278272148E-9
4.4999999999999996E-5     1.1944797557998458E-9    1.2855469247800183E-10   -4.274015584157681E-10   1.904766989511065E-10    -1.0129890366534846E-9   -5.999061080963526E-9    -1.2286652866931E-8      -1.5478165617219175E-8   -1.5817747545017906E-8   2.664448084046001E-9     8.363687558472571E-9
4.5499999999999995E-5     1.1730970973670104E-9    -1.5483540247959092E-10  -6.666493941132295E-10   -2.778932483217381E-10   -1.7264299740766516E-9   -7.232083903948692E-9    -1.4693795886037605E-8   -1.8303043387299888E-8   -1.8856754648012924E-8   3.541842017514177E-9     1.012675605777208E-8
4.6E-5                    1.103074673306054E-9     -4.868401400498496E-10   -9.224754715550638E-10   -8.194522784727278E-10   -2.4971047901637772E-9   -8.379484736307974E-9    -1.6970428269937843E-8   -2.0901347790996653E-8   -2.168355964130319E-8    4.422464902982293E-9     1.1809996742130678E-8
4.65E-5                   9.774307528420193E-10    -8.642352096265735E-10   -1.1845427290242504E-9   -1.4203430686741754E-9   -3.300279367410454E-9    -9.39453056254724E-9     -1.9011952711240595E-8   -2.313752633413531E-8    -2.4163835011301124E-8   5.272088121549064E-9     1.3345321816244163E-8
4.7E-5                    7.874353838631439E-10    -1.2805198266150869E-9   -1.44165238346908E-9     -2.0626993022795337E-9   -4.106606178957004E-9    -1.022515276695562E-8    -2.0703597431356444E-8   -2.487639226576139E-8    -2.6163171727187932E-8   6.053386595408054E-9     1.4659799784469012E-8
4.7499999999999996E-5     5.252809715917904E-10    -1.7238691081391922E-9   -1.6825302264278947E-9   -2.7273352954426298E-9   -4.888118771085149E-9    -1.0815093258389925E-8   -2.193026947581413E-8    -2.5989893861021642E-8   -2.7546449240090716E-8   6.727460179168676E-9     1.5679557761277446E-8
4.8E-5                    1.8771992361838992E-10   -2.1773705631928236E-9   -1.8950505217945653E-9   -3.3953620509891645E-9   -5.618161150281333E-9    -1.1109623586148085E-8   -2.258899070548599E-8    -2.6361539537396897E-8   -2.8180834429206777E-8   7.25497878050925E-9      1.6333989592391254E-8
4.85E-5                   -2.223059549375538E-10   -2.6214678870542274E-9   -2.065484046062744E-9    -4.046441556493396E-9    -6.265723567127112E-9    -1.1060664416577768E-8   -2.2595238105629477E-8   -2.5888955387518096E-8   -2.794442569135947E-8    7.598291100629413E-9     1.6558472191812348E-8