% Model:              Untitled.mph
% Version:            COMSOL 6.0.0.405
% Date:               Jul 15 2025, 17:18
% Dimension:          1
% Nodes:              401
% Expressions:        11
% Description:        Point graph
% Time (s)                Displacement field, Y component Displacement field, Y component Displacement field, Y component Displacement field, Y component Displacement field, Y component Displacement field, Y component Displacement field, Y component Displacement field, Y component Displacement field, Y component Displacement field, Y component Displacement field, Y component
0                         3.6880198895785445E-37   1.3724578724880046E-36   1.737467651446294E-35    7.154239453011272E-35    1.03859070165397E-33     3.463910336168117E-32    1.1764242557389404E-31   1.5088622833507004E-31   1.0084946385573454E-30   -1.7667162016642054E-38  -5.443179654233929E-38
5.0E-7                    -9.959861461513348E-28   5.603679604126716E-28    6.976041708724661E-27    -5.315181002607769E-26   -3.2094712883569637E-25  -2.0083839674484632E-23  -9.953577014355418E-24   5.62501063872813E-24     -1.6224085455558147E-22  -1.6971263195124072E-29  4.845456956786814E-31
1.0E-6                    6.082260121130734E-27    -1.2214252478618183E-26  -9.344043818083908E-26   2.5872374063906017E-25   1.5682071233210214E-24   1.0601653694903606E-22   2.532271402409933E-22    1.0407850102401005E-22   1.6314808618459063E-22   2.902401811270594E-28    -2.613659612831024E-28
1.5E-6                    -6.849664377163942E-27   7.509935338181892E-26    2.952090983026631E-25    -4.912947631980135E-25   -4.513134495062089E-24   -2.2050242442939545E-22  -1.168263187228527E-21   -8.330002901452557E-22   -9.5775351937751E-24     -1.5487714955461143E-27  4.004156478880724E-27
2.0E-6                    3.6560304659604016E-26   -6.975877100404223E-26   1.8535275389638001E-25   -1.1731401405610962E-24  8.942328684160876E-24    2.213413837482505E-22    1.3664829042379585E-21   -7.192888711230885E-22   -5.080714473669568E-22   1.963294780778365E-27    -1.6584101176518E-26
2.4999999999999998E-6     -3.9609986979319695E-25  -1.023940290448231E-24   -2.362948047860886E-24   6.918804299206687E-24    -1.1472523294915376E-23  8.74912026957446E-22     5.1261691107810195E-21   9.843810989349764E-21    6.339058303074391E-21    1.103739586470726E-26    -2.236340804214164E-27
3.0E-6                    3.489677628860262E-25    2.6461489166754535E-24   -3.5967609906813347E-25  -5.48414314876775E-24    -5.670950570843461E-23   -4.418926080061897E-21   -2.218365920483445E-20   -1.0259321354363598E-20  -1.6208931666295443E-20  -3.700887136880161E-26   1.541807692023709E-25
3.5E-6                    3.825280240250904E-24    7.199705374563475E-24    1.8312083002969194E-23   -6.232556817650901E-23   1.767288562362557E-22    -1.4958621696169915E-21  2.313656486574354E-21    -3.31736331373574E-20    -1.4457867416400826E-21  -2.1115139233015236E-26  -1.7524265400744354E-25
4.0E-6                    -5.724194763766702E-24   -2.4141018969197984E-23  8.85444907002585E-25     7.964536471561242E-24    2.9290204779069973E-23   1.5093170801205916E-20   8.109462411599342E-20    2.5615405259765982E-20   1.1060605057611995E-19   2.382878017738288E-25    -5.596033972653843E-25
4.5E-6                    -1.970063734435001E-23   -4.341171444289341E-23   -1.0523727528125187E-22  5.504428478919381E-22    5.894778673826906E-23    1.6125895723702548E-20   2.5515196020048496E-20   -5.2028949155647525E-21  4.116613116567056E-20    -1.9586503049336785E-25  7.627857339571744E-25
4.9999999999999996E-6     3.384378954949843E-23    1.266201440522759E-22    -5.327676331495644E-23   6.822854152733948E-22    1.4257789413044065E-21   -5.285921146406146E-21   -9.125745250534941E-20   4.536643796487442E-19    -8.898800907828525E-19   -7.373676709448467E-25   5.703063947041577E-25
5.5E-6                    7.596663163140466E-23    2.6662077917781723E-22   4.225544309353325E-22    -2.903408970440409E-21   -3.1101700419360297E-21  -7.89071124890778E-20    -6.197398925357207E-20   1.5375148600565886E-18   1.3328492600272013E-18   2.1246117656410836E-24   1.3977542998644815E-24
6.0E-6                    -1.3239954378164355E-22  -4.540669679568348E-22   6.805565192781127E-22    -7.079452755864024E-21   -1.0424580626643E-20     -1.5923124824632234E-20  1.5640143131663916E-18   -2.4086227268125685E-18  1.0425976155170543E-17   -4.004871630453389E-25   5.5866929659645824E-24
6.5E-6                    -2.3297041709354474E-22  -1.5179673105750426E-21  -1.0092785658361564E-21  1.2302448092185339E-20   1.9212369481824946E-20   3.7843226911612094E-19   4.895197869098415E-18    -7.7195283814421E-18     -2.2170886312463962E-18  -1.293595454443403E-23   -3.1036386955641726E-23
7.0E-6                    3.821483916693182E-22    1.0410466981948506E-21   -5.113557969605185E-21   5.838963043049093E-20    1.0098979062748775E-19   -8.337848527860376E-19   -2.1327219982665766E-18  2.5567808752737127E-17   -4.943308550616927E-17   1.7851150916836935E-23   -4.516742470904745E-23
7.499999999999999E-6      4.709971902929405E-22    7.337170357228676E-21    -2.4907821473251186E-21  5.482214097728765E-21    9.001339472668089E-20    -2.2691218719963343E-18  -1.5536277445555378E-17  8.613143060935857E-17    1.637975239498405E-17    6.410297808236138E-23    2.014780097556234E-22
8.0E-6                    -7.789710060125353E-22   -1.9031206903174273E-22  2.315885117509689E-20    -2.4153175945284697E-19  -2.973992131682401E-19   1.2929653026849475E-17   5.5276990073782174E-17   1.5139871755355752E-17   3.2843860822584016E-16   -1.1265693646338878E-22  2.1655684824294343E-22
8.5E-6                    5.351567513636343E-22    -3.034463721051027E-20   4.156072257007166E-20    -1.1683225602412518E-19  -4.784125694256708E-19   4.061491097861967E-17    2.4983415841438657E-16   -6.619655057149223E-17   4.40702707051645E-16     -2.7643301776572735E-22  -9.628264889820222E-22
9.0E-6                    1.5448801620277716E-21   -1.5932964143847822E-20  -4.6687012700590104E-20  1.3478153797524581E-18   2.54817647088138E-18     -4.4203292912014565E-18  2.506090639471689E-16    6.420237322838933E-16    -2.8284424908565805E-16  4.714644671589335E-22    -8.81533436283951E-22
9.499999999999999E-6      -1.1775471404644472E-20  1.0485437899829804E-19   -1.9595624310723307E-19  2.9278801036697415E-18   1.0019656766086311E-17   -1.3372424951573077E-16  -1.7834019168165443E-17  2.351479323017302E-15    -4.0545704948790263E-16  1.0371392621916366E-21   4.121552948440028E-21
9.999999999999999E-6      -9.027764429051704E-21   1.2498903400050584E-19   1.7221193044343358E-21   5.831200201037796E-19    1.1146165360644277E-17   2.981675926184222E-17    9.530465040467715E-16    4.051740992436238E-15    4.0906648944612175E-15   -1.6440640555306915E-21  4.032608909995842E-21
1.05E-5                   8.177012877824672E-20    -2.49082295024327E-19    8.150482062421276E-19    -3.2882822363896482E-18  -2.7379493379672575E-18  9.581292159295797E-16    4.942322806208217E-15    8.04811473341883E-15     1.3757103705463667E-14   -3.59096435313848E-21    -1.6439401876488318E-20
1.1E-5                    1.200213290787899E-19    -5.451582881352221E-19   1.474212918203429E-18    1.164295500496072E-17    2.025711707209957E-17    2.1475455132930154E-15   1.091274814858571E-14    2.3508877316385817E-14   2.2214336640396705E-14   5.373618220157416E-21    -2.369029440996027E-20
1.15E-5                   -2.77617473349013E-19    3.169190045308853E-19    9.825797212283813E-19    6.881145900346441E-17    2.0747517602386274E-16   2.237646793004788E-15    1.9587406674466287E-14   6.084404026079254E-14    3.490949399076825E-14    1.3031894131059711E-20   4.9362401636602235E-20
1.2E-5                    -6.933618779858987E-19   1.907025206172734E-18    1.6652102555077654E-18   1.538244917804073E-16    6.298401899444066E-16    2.3840237621050396E-15   4.3638335695983724E-14   1.3614509976657975E-13   9.425002487898686E-14    -1.5985945227747842E-20  1.1954303860975962E-19
1.2499999999999999E-5     7.443648566226036E-19    1.7537540282875194E-18   1.1166668973819456E-17   2.3245149600757657E-16   1.2134495029522647E-15   1.0279303890593877E-14   1.0417622170824578E-13   3.0707652905878004E-13   2.5670716054969204E-13   -5.473929743693158E-20   -8.687415930081705E-20
1.3E-5                    3.992607453517679E-18    -8.413917615246779E-19   3.7447646948863754E-17   4.2818991802850513E-16   2.1467101483134447E-15   3.767151633410016E-14    2.261067135964506E-13    7.073482658334498E-13    5.54736310341494E-13     1.911326175090035E-20    -5.140560849660876E-19
1.35E-5                   2.7624040949104883E-18   -1.943016254242327E-18   9.082684737612702E-17    1.2718443503171986E-15   4.8902161233578795E-15   9.178934831865805E-14    4.810465043935358E-13    1.5504789046985075E-12   1.0988609693100172E-12   1.9773517607149789E-19   -3.2618868885698976E-19
1.4E-5                    -7.259500768201247E-18   5.717307207471782E-18    2.2744930703515602E-16   3.678204619989161E-15    1.3215965221948529E-14   1.8040177600099243E-13   1.0469432637739422E-12   3.1723885824879846E-12   2.277548401699594E-12    1.106591326703437E-19    1.0319296202001345E-18
1.45E-5                   -7.746493187758297E-18   3.5397187158539586E-17   6.166926157515544E-16    8.525501664413178E-15    3.348940226682238E-14    3.4766349771583213E-13   2.1703380006298805E-12   6.179815248446063E-12    4.658156832527233E-12    -5.527326506633746E-19   1.7766378403154015E-18
1.4999999999999999E-5     3.6826897074188707E-17   1.0756205181183065E-16   1.55542636559949E-15     1.6907403222317283E-14   7.424351381636794E-14    7.134779256412132E-13    4.1040150059421845E-12   1.1620579508400599E-11   8.608376118879972E-12    -1.087025664250587E-18   -1.751064319197848E-18
1.55E-5                   1.1966223952173165E-16   2.311974343661182E-16    3.578476385194578E-15    3.31726246306894E-14     1.4883565674661211E-13   1.475458662628133E-12    7.335559207108415E-12    2.0969964863268792E-11   1.4652319344158433E-11   6.897796878903903E-20    -1.0126835786743885E-17
1.6E-5                    1.6060975043629139E-16   4.31032980145479E-16     8.203013102387738E-15    7.050829797771851E-14    2.9113206789590247E-13   2.9151067166779728E-12   1.3059022755500393E-11   3.555479263005135E-11    2.4833430647329025E-11   2.7636040823394763E-18   -1.6089367580278307E-17
1.6499999999999998E-5     1.5401745038101134E-16   9.752354084947156E-16    1.9466288268219653E-14   1.534577836654002E-13    5.879184292610871E-13    5.484259298670587E-12    2.304863759600195E-11    5.500548376781783E-11    4.25430874930487E-11     2.476828796539253E-18    -1.0237928925588091E-17
1.7E-5                    4.4069566972741916E-16   2.722784840753207E-15    4.536301183509724E-14    3.141019062776516E-13    1.2004711407986447E-12   9.868844649591485E-12    3.829499719997654E-11    7.551127082745229E-11    6.848473631365138E-11    -7.059796218282939E-18   -5.019256447986987E-18
1.75E-5                   1.7102696664452852E-15   7.136473492475117E-15    9.917309394673839E-14    5.955603429298624E-13    2.3389657634457292E-12   1.6795355125664115E-11   5.748702286578197E-11    9.058729514831534E-11    9.66507008248634E-11     -2.4538631194047162E-17  -6.373597815805879E-17
1.8E-5                    4.5126050144037946E-15   1.607328917393512E-14    2.0439253417700932E-13   1.0841085071891251E-12   4.240488689670068E-12    2.665479962866564E-11    7.743046289792502E-11    9.593398480487154E-11    1.1768699084935633E-10   -3.473616392118915E-17   -2.840361337800424E-16
1.85E-5                   9.029167412129322E-15    3.3068132337710836E-14   4.075831172784195E-13    1.958120331540433E-12    7.279298807437054E-12    3.9397631737307126E-11   9.540507005279752E-11    9.433827546305087E-11    1.2810705793256106E-10   -2.3460303963971576E-17  -7.073122841286636E-16
1.8999999999999998E-5     1.650015204838978E-14    6.776321109195511E-14    7.953659930044314E-13    3.5003265100533143E-12   1.2127759964453757E-11   5.4769320903963424E-11   1.1042051912857973E-10   9.346304623718375E-11    1.3266184426135197E-10   -2.3317688764420546E-17  -1.2966247788948389E-15
1.95E-5                   3.232515395982979E-14    1.4151707758610318E-13   1.503293171112234E-12    6.039560333528441E-12    1.949798337308494E-11    7.215357138024259E-11    1.213609664593593E-10    9.635711089181469E-11    1.3414999229600156E-10   -1.6039660391785404E-16  -2.2743271210860865E-15
1.9999999999999998E-5     6.815345925209971E-14    2.899502214876633E-13    2.7087487066661837E-12   9.83743175191372E-12     2.920966942913051E-11    8.963346999032816E-11    1.24739925045887E-10     9.539710564768578E-11    1.2458159019979216E-10   -6.206533890794812E-16   -4.8057521478156655E-15
2.05E-5                   1.4037853129256498E-13   5.639830273417895E-13    4.6070144063273665E-12   1.4915716370527733E-11   3.9432772555316296E-11   1.0350817935326027E-10   1.1597659741608041E-10   7.922197582008813E-11    9.291660260276254E-11    -1.497334378742019E-15   -1.1353550338025221E-14
2.1E-5                    2.679473013173784E-13    1.0385386326694053E-12   7.353759536943498E-12    2.0818946654812818E-11   4.746744956899374E-11    1.0987543201581254E-10   9.300041540792761E-11    4.599123266747853E-11    4.056993984592447E-11    -2.729476075430028E-15   -2.5157540852294452E-14
2.1499999999999997E-5     4.776126775720465E-13    1.8304614806702834E-12   1.0940973804720621E-11   2.6501696800588025E-11   5.1779308686194226E-11   1.0732862364972473E-10   5.7470517247438754E-11   4.735018210657885E-12    -1.8249948262123252E-11  -4.590253171958762E-15   -4.99491154458773E-14
2.2E-5                    8.187994401218622E-13    3.104804658478638E-12    1.503429100840093E-11    3.0668279209958916E-11   5.283720321192058E-11    9.731585456673953E-11    1.2631374478038558E-11   -4.046314112150375E-11   -7.429098586834753E-11   -8.834562376668015E-15   -9.23603429089799E-14
2.2499999999999998E-5     1.3727916549009803E-12   5.039504503546238E-12    1.8930152478116436E-11   3.2457020909515355E-11   5.1273825353333707E-11   8.073565157659271E-11    -3.916390611186328E-11   -1.0302149455265161E-10  -1.3604879027292273E-10  -1.9554069145311093E-14  -1.675703041487346E-13
2.3E-5                    2.2317041148081593E-12   7.739124694552181E-12    2.1793953248665356E-11   3.16895069679236E-11     4.568311946307315E-11    5.443182888582982E-11    -9.839586562084444E-11   -2.0152548717205102E-10  -2.2109523576403953E-10  -4.239620118463226E-14   -3.043740764114007E-13
2.35E-5                   3.442152088025817E-12    1.1116911440997338E-11   2.305716970782141E-11    2.8199077585240094E-11   3.343113886505188E-11    1.2323132326948095E-11   -1.7053011616683553E-10  -3.344302605884694E-10   -3.3804853127540875E-10  -8.28031345910104E-14    -5.446356358598521E-13
2.4E-5                    4.94552347129184E-12     1.4785736815460758E-11   2.2541644349365874E-11   2.1061523106416582E-11   1.3645500381675771E-11   -4.955514681994621E-11   -2.650125294334213E-10   -4.771837500598286E-10   -4.807518219122687E-10   -1.4711863405913058E-13  -9.368457669042026E-13
2.45E-5                   6.5624643139569154E-12   1.8034715062891953E-11   2.006016227295506E-11    8.978429145066131E-12    -1.1964255471607821E-11  -1.2984681345581996E-10  -3.8784453620029414E-10  -6.094898974235467E-10   -6.372145925157956E-10   -2.500042772549537E-13   -1.5278039543635842E-12
2.4999999999999998E-5     8.043512817024439E-12    1.999414716190226E-11    1.490879934690063E-11    -8.430479671735393E-12   -4.165255612544749E-11   -2.2402761458300616E-10  -5.34276922108805E-10    -7.366735762970507E-10   -7.99125880541616E-10    -4.2468183619575136E-13  -2.3518051807597336E-12
2.55E-5                   9.160887129406305E-12    1.9986770604674175E-11   5.997430651919426E-12    -3.004923667924921E-11   -7.54876312605314E-11    -3.2917499230599205E-10  -6.919733772287672E-10   -8.767405683245198E-10   -9.632340790087282E-10   -7.242905648548427E-13   -3.4082139911779976E-12
2.6E-5                    9.77622450066396E-12     1.781272280094541E-11    -7.283237820986842E-12   -5.4084471817279776E-11  -1.1379401010472258E-10  -4.462654005388507E-10   -8.51716110142816E-10    -1.034168324842952E-9    -1.1279819229719807E-9   -1.2037266722008071E-12  -4.624284649497235E-12
2.65E-5                   9.809173195306095E-12    1.3612802380915434E-11   -2.4352875710818276E-11  -7.913865096123122E-11   -1.5552528021564358E-10  -5.780447291802769E-10   -1.0110602533913707E-9   -1.195963398134006E-9    -1.2895090493229468E-9   -1.8859262993359336E-12  -5.826001280427644E-12
2.7E-5                    9.095465009459737E-12    7.312238390754788E-12    -4.3798469203755776E-11  -1.0456745336899959E-10  -2.002899074475805E-10   -7.245397077855359E-10   -1.166707680019961E-9    -1.3467425239004075E-9   -1.4377344317759823E-9   -2.7343399831525142E-12  -6.757003708137736E-12
2.7499999999999998E-5     7.263492833134885E-12    -1.7853478280376881E-12  -6.451714438763049E-11   -1.306779584355667E-10   -2.5110248652553575E-10  -8.799135941398031E-10   -1.308750663891971E-9    -1.4750221739143203E-9   -1.5561510440353393E-9   -3.6555547941273065E-12  -7.157502285848344E-12
2.8E-5                    3.82522001133589E-12     -1.464612892227918E-11   -8.639192900769778E-11   -1.5912883648957287E-10  -3.121958193323107E-10   -1.0333388397662924E-9   -1.4262702667197696E-9   -1.5672802357005445E-9   -1.6287418370883487E-9   -4.532910563193985E-12   -6.8533555714300525E-12
2.8499999999999998E-5     -1.5110176556415012E-12  -3.155463575346021E-11   -1.09796962624569E-10    -1.921948210334672E-10   -3.8289733654183717E-10  -1.1732988385840319E-9   -1.5148045148120446E-9   -1.6083629205230366E-9   -1.6469773596421992E-9   -5.25933318743944E-12    -5.7785367814820146E-12
2.9E-5                    -8.609274162053234E-12   -5.151355168597091E-11   -1.3465247500642203E-10  -2.300353878160333E-10   -4.550902366665274E-10   -1.291343112760905E-9    -1.5723027927359233E-9   -1.5887752336208394E-9   -1.6061284918427316E-9   -5.733175075564207E-12   -3.9079720792510096E-12
2.95E-5                   -1.7062797877594595E-11  -7.27526110863339E-11    -1.6013669627987654E-10  -2.6833834739687033E-10  -5.182266574071318E-10   -1.3816248447662402E-9   -1.587233168979503E-9    -1.5016936690136961E-9   -1.4948350901042089E-9   -5.824373747300033E-12   -1.1641650705454879E-12
2.9999999999999997E-5     -2.6612549822824725E-11  -9.398110843600313E-11   -1.850074991942129E-10   -2.9987090905865853E-10  -5.668334353960105E-10   -1.4370842085920874E-9   -1.534547135385712E-9    -1.3315775329120648E-9   -1.2932917378756954E-9   -5.365720247639002E-12   2.611223169475673E-12
3.05E-5                   -3.7347166926956034E-11  -1.1514829661977016E-10  -2.076291881225317E-10   -3.1940239030573247E-10  -6.025430124472288E-10   -1.446734601582446E-9    -1.385810111043398E-9    -1.055792677503639E-9    -9.826942864470065E-10   -4.199648068844068E-12   7.580996044293902E-12
3.1E-5                    -4.943956087511565E-11   -1.368594617236562E-10   -2.2568989161755926E-10  -3.267292741599929E-10   -6.286538689158661E-10   -1.3965087775523733E-9   -1.1232203238879248E-9   -6.611662968654449E-10   -5.516469827914155E-10   -2.2251506401651053E-12  1.3764782296349166E-11
3.15E-5                   -6.271543309291451E-11   -1.5891964231069547E-10  -2.366670694033991E-10   -3.240655406231167E-10   -6.4267078036828E-10     -1.271359019683892E-9    -7.43978200499085E-10    -1.5094875207911355E-10  7.533188495012953E-12    6.283555716331353E-13    2.091174154404894E-11
3.2E-5                    -7.648337526391887E-11   -1.793972667295462E-10   -2.3904430053640777E-10  -3.108601730835634E-10   -6.338807860088668E-10   -1.0557499479397057E-9   -2.5270875564270774E-10  4.686165550958465E-10    7.016577422412521E-10    4.457037608519425E-12    2.8518749843794742E-11
3.25E-5                   -8.970354949470638E-11   -1.9513621653645788E-10  -2.3240577595769433E-10  -2.823757213983986E-10   -5.880987820684696E-10   -7.340108905975452E-10   3.486364705684502E-10    1.2009118532439276E-9    1.5301787627215407E-9    9.335404991662761E-12    3.6061716249625814E-11
3.2999999999999996E-5     -1.0131558110499819E-10  -2.0326643453574786E-10  -2.1542821168093925E-10  -2.334074847435277E-10   -4.952225510915529E-10   -2.937620129547768E-10   1.0631969365519092E-9    2.051920040033133E-9     2.4781011286999693E-9    1.5158754621732197E-11   4.3306829945008596E-11
3.35E-5                   -1.1058994329226856E-10  -2.0239429843756355E-10  -1.8407422149056051E-10  -1.6185125043002794E-10  -3.5310382951765687E-10  2.6908731765605997E-10   1.8929683266956332E-9    3.0151800911256995E-9    3.5189870414129474E-9    2.1578948741504248E-11   5.039332172341688E-11
3.4E-5                    -1.1729157655777044E-10  -1.9254214215237633E-10  -1.3294146399813153E-10  -6.751084422651759E-11   -1.6505002210147716E-10  9.492874083742609E-10    2.831417679889651E-9     4.068722123409835E-9     4.624058465364177E-9     2.819340737096262E-11    5.7521135219808786E-11
3.45E-5                   -1.212795080937506E-10   -1.7392798477046165E-10  -5.883040383358727E-11   5.1496682429008915E-11   6.603660478738914E-11    1.7366820756374765E-9    3.861239916887793E-9     5.181850632423734E-9     5.766568949777865E-9     3.483653632001436E-11    6.448922936636882E-11
3.5E-5                    -1.2162263225468763E-10  -1.4543400516032961E-10  3.757756901711462E-11    1.989058699669879E-10    3.41279356214419E-10     2.6207095325881103E-9    4.955784407637985E-9     6.317071802106383E-9     6.918009379249544E-9     4.165780900299344E-11    7.053176352411765E-11
3.5499999999999996E-5     -1.1621943364903908E-10  -1.0390657980538443E-10  1.5362073421926767E-10   3.760155178332719E-10    6.636930370908374E-10    3.5894285618844174E-9    6.079193928628852E-9     7.4264220629879875E-9    8.039551794009966E-9     4.8885545579767465E-11   7.460217760026259E-11
3.6E-5                    -1.0273237257619039E-10  -4.5169972549536394E-11  2.8720970888644893E-10   5.782689223790687E-10    1.0320268592561093E-9    4.623787809647273E-9     7.184908778705349E-9     8.453851271445904E-9     9.073848471876945E-9     5.6475824036082964E-11   7.582340172169745E-11
3.65E-5                   -7.997235886689504E-11   3.3570618886213166E-11   4.3697905303334775E-10   7.97159299635153E-10     1.4367924834017234E-9    5.692138332749025E-9     8.216962204861987E-9     9.345311278312024E-9     9.944713129556097E-9     6.389957864795122E-11    7.37480327795515E-11
3.7E-5                    -4.797035795154161E-11   1.3187433545952598E-10   6.009548386394333E-10    1.0251175415020072E-9    1.8632008659604443E-9    6.7490219358453666E-9    9.115792741416277E-9     1.0053344139463293E-8    1.0569863083504621E-8    7.020472432901694E-11    6.828189630798074E-11
3.75E-5                   -6.628423418608388E-12   2.4676803181476326E-10   7.761954393862916E-10    1.2574151118159567E-9    2.2980022697735867E-9    7.739120047141314E-9     9.823945784018204E-9     1.0527925961449823E-8    1.087839444673677E-8     7.435515246434212E-11    5.928096082356565E-11
3.7999999999999995E-5     4.511255711319523E-11    3.756024527259187E-10    9.59007868419938E-10     1.4890192217920408E-9    2.731862093946353E-9     8.603902582256093E-9     1.0286352736356269E-8    1.070471774350263E-8     1.0815723213753059E-8    7.562149988595614E-11    4.5994124786339956E-11
3.85E-5                   1.084126214792601E-10    5.180353736113772E-10    1.1436027936482949E-9    1.7102005363642046E-9    3.1538337495128973E-9    9.286004036071951E-9     1.0446005489496267E-8    1.050786456572374E-8     1.0332515171249521E-8    7.360628572458696E-11    2.6832860343251687E-11
3.9E-5                    1.8326946764840503E-10   6.746316592471277E-10    1.3198898074566296E-9    1.9054944115321835E-9    3.544363425686892E-9     9.727998669228857E-9     1.0240898100065544E-8    9.866485548246895E-9     9.375204464466698E-9     6.777395316021173E-11    -4.3187927755012005E-14
3.95E-5                   2.684622886424686E-10    8.431194603591873E-10    1.473855384432018E-9     2.0566578677926086E-9    3.8751639132860485E-9    9.86840180487711E-9      9.606803464333165E-9     8.726989530634471E-9     7.892703560336099E-9     5.7024937084029764E-11   -3.557637673724018E-11
3.9999999999999996E-5     3.6222916122564213E-10   1.0159012618281322E-9    1.5913642663041665E-9    2.1467588561455878E-9    4.11583792478588E-9      9.641421001282127E-9     8.485439004792931E-9     7.0524346462040976E-9    5.850478007160922E-9     3.996647847412893E-11    -7.91597311000751E-11
4.0499999999999995E-5     4.622699140945316E-10    1.180973806933144E-9     1.661422748004104E-9     2.162318719756249E-9     4.23966769225183E-9      8.982879205532144E-9     6.8335692606773964E-9    4.819523863027063E-9     3.234987057178145E-9     1.5690079620262717E-11   -1.292059861721423E-10
4.1E-5                    5.651079838067189E-10    1.3248988605799832E-9    1.6751255972836746E-9    2.0925132753038127E-9    4.223391376885143E-9     7.83825616656274E-9      4.6280496313456605E-9    2.0220945184861808E-9    4.9467805399408564E-11   -1.5849329652806134E-11  -1.8430661607586137E-10
4.15E-5                   6.659408232032233E-10    1.435137879689275E-9     1.6219369627495363E-9    1.9269228760748206E-9    4.043503920220615E-9     6.168217395250948E-9     1.8654777806766504E-9    -1.325241772324287E-9    -3.6842376037273703E-9   -5.4252201820825537E-11  -2.4365433854391374E-10
4.2E-5                    7.592601556396647E-10    1.5007929176149876E-9    1.4883936727985244E-9    1.6545037600190976E-9    3.674895997721441E-9     3.950999280278083E-9     -1.4394432816970387E-9   -5.187682505957077E-9    -7.91461651937313E-9     -9.925666166786539E-11   -3.063070793897827E-10
4.2499999999999996E-5     8.3947278928639E-10      1.5124773163070157E-9    1.261367218124446E-9     1.265190077759034E-9     3.0941469878992993E-9    1.1830852247086116E-9    -5.251399472410687E-9    -9.50673127024435E-9     -1.2553256783679545E-8   -1.5076361984895804E-10  -3.7021662743259596E-10
4.2999999999999995E-5     9.009450156770436E-10    1.4617032016529554E-9    9.327390370842472E-10    7.529507897493688E-10    2.284962093410341E-9     -2.1203595986543146E-9   -9.507776286694568E-9    -1.4191134852134235E-8   -1.7479899536875666E-8   -2.0840855397762584E-10  -4.3208527930590786E-10
4.35E-5                   9.375431890264496E-10    1.3396540184971933E-9    5.010718374091387E-10    1.180273369659614E-10    1.2419788358536011E-9    -5.922832046471431E-9    -1.4113959000407252E-8   -1.9116801031815746E-8   -2.255160066447303E-8    -2.711867911973448E-10   -4.880852740980826E-10
4.4E-5                    9.421405202477495E-10    1.136306500222392E-9     -3.063522227479191E-11   -6.326819384663378E-10   -2.875231771275384E-11   -1.0160179198023237E-8   -1.8945599257369208E-8   -2.4140098558675524E-8   -2.7604694776069152E-8   -3.3725079628118513E-10  -5.346481554854011E-10
4.45E-5                   9.068956874965327E-10    8.417604518948714E-10    -6.580688131016518E-10   -1.4865179615865456E-9   -1.5117435490669484E-9   -1.4734652486236266E-8   -2.3854788016126137E-8   -2.9105246116929924E-8   -3.2451215285508426E-8   -4.037740933785055E-10   -5.686744562946753E-10
4.4999999999999996E-5     8.248077792234353E-10    4.4986803596796805E-10   -1.3759208238536792E-9   -2.426164410224757E-9    -3.1843463577911527E-9   -1.9515697079008292E-8   -2.8672804320017192E-8   -3.383395390917352E-8    -3.6880117273381417E-8   -4.670688939337862E-10   -5.871697441499415E-10
4.5499999999999995E-5     6.915154820708867E-10    -3.864752472544503E-11   -2.1745068363309314E-9   -3.430008590139625E-9    -5.0172058318103056E-9   -2.4346879670184823E-8   -3.3208699435939055E-8   -3.811628900284284E-8    -4.066673964540294E-8    -5.231323322713116E-10   -5.867670362240983E-10
4.6E-5                    5.052452828944607E-10    -6.165009463624012E-10   -3.0353634671755543E-9   -4.471241860673472E-9    -6.971852539642949E-9    -2.9051159790189044E-8   -3.725174052575436E-8    -4.1723597157051526E-8   -4.358365246900156E-8    -5.682194557037695E-10   -5.635978359769659E-10
4.65E-5                   2.645219398994779E-10    -1.2731017563391582E-9   -3.929672214658018E-9    -5.516302461270863E-9    -8.996488651044171E-9    -3.343083045253853E-8    -4.058276895544488E-8    -4.443290596907506E-8    -4.540784219358256E-8    -5.988697494978935E-10   -5.136174436953075E-10
4.7E-5                    -3.36294718039876E-11    -1.9971467059518413E-9   -4.820841682280447E-9    -6.524229813976009E-9    -1.1023248029971617E-8   -3.7267903999479607E-8   -4.298803637892286E-8    -4.603880714007868E-8    -4.592855596714313E-8    -6.11510844818634E-10    -4.3307727316755013E-10
4.7499999999999996E-5     -3.919992822549762E-10   -2.775603262495019E-9    -5.668778423502678E-9    -7.447798205107321E-9    -1.2970334931193076E-8   -4.033128585734805E-8    -4.426637644495276E-8    -4.6351151683218874E-8   -4.496068804362092E-8    -6.023118609110875E-10   -3.1879325856553656E-10
4.8E-5                    -8.087835361969749E-10   -3.589831394000009E-9    -6.432388004120353E-9    -8.235653632739252E-9    -1.4749094045638936E-8   -4.238927945500933E-8    -4.423076417889744E-8    -4.519549186051906E-8    -4.235909130638927E-8    -5.675092113913278E-10   -1.6825803658493524E-10
4.85E-5                   -1.2746112129932887E-9   -4.4124617976702806E-9   -7.0695773752604505E-9   -8.83453496497703E-9     -1.6271643436009674E-8   -4.322197780471398E-8    -4.2713190266961506E-8   -4.242405532728721E-8    -3.802580196660745E-8    -5.037157246614594E-10   2.0030420145651385E-11