% Model:              Untitled.mph
% Version:            COMSOL 6.0.0.405
% Date:               Jul 15 2025, 17:47
% Dimension:          1
% Nodes:              401
% Expressions:        11
% Description:        Point graph
% Time (s)                Displacement field, Y component Displacement field, Y component Displacement field, Y component Displacement field, Y component Displacement field, Y component Displacement field, Y component Displacement field, Y component Displacement field, Y component Displacement field, Y component Displacement field, Y component Displacement field, Y component
0                         -1.9017193457010546E-31  -7.236254809486042E-31   -5.061668040057685E-31   -8.091599396806318E-32   -5.340618887083177E-33   -1.688112303433144E-33   2.9812255986754395E-30   1.0930050592034029E-34   1.1212676071454063E-34   1.1815677223247833E-35   7.907832620961426E-37
5.0E-7                    -4.987857057629263E-24   1.1985817144811915E-22   5.915245833468383E-23    4.278048203870875E-24    3.932714279208668E-26    1.0268673417467737E-25   -4.934597578373247E-22   -1.4906571534715824E-26  -1.581191686633937E-26   -1.4027801144117466E-27  -9.579168063609037E-29
1.0E-6                    7.248045260096316E-23    -1.4599070543738319E-22  9.201850060618707E-23    8.969640266128397E-23    6.985084028683072E-24    1.240562552072807E-24    -2.295321045130661E-21   5.2499722252700576E-27   2.2237290859832656E-26   -1.3478376869502991E-27  -9.181334777453256E-29
1.5E-6                    1.4586293162166391E-21   -1.6332754393796084E-22  -1.0780119830533492E-21  -6.228671827117548E-22   -3.111185898309143E-23   -7.787927611470751E-24   3.7223189682316174E-20   9.349312398317389E-26    -4.9799981205723254E-26  1.508646683975601E-26    1.454180151825596E-27
2.0E-6                    -5.480719737982582E-21   1.5776366168449796E-21   4.2146760035329025E-21   1.6118496122291166E-21   4.276148417197793E-23    2.0016692996825344E-23   -1.567038270812882E-19   -3.1848856125172264E-25  9.30754408831814E-26     -3.0975205147666207E-26  -5.9761753603390246E-27
2.4999999999999998E-6     -3.572227111464697E-21   -1.1142944888618093E-20  -1.0670072753619787E-20  8.998542425109568E-22    -4.572888716866068E-23   -2.022850958049537E-23   1.6435678526147723E-19   4.231843786036864E-25    7.640424230228163E-25    1.6490812437949817E-26   1.2646941936249128E-26
3.0E-6                    3.683678470994049E-20    3.12694294579001E-20     1.7514275773976622E-20   -7.965783899713051E-21   4.44604740549867E-22     1.1910367275499998E-23   5.52225660392253E-19     -1.5649448854251718E-24  -6.040106747445128E-24   -1.5408554616516995E-25  -2.4738692135158758E-27
3.5E-6                    -4.716339724967687E-20   -2.934019743304295E-20   -3.897192693615838E-21   -1.84536028389771E-20    -3.728451744166646E-22   -1.212725764851886E-23   -1.3722795683838156E-18  7.246066739038937E-24    1.6230012127377836E-23   1.0407180327876915E-24   -5.44011341200258E-26
4.0E-6                    -1.1531811270284104E-19  -2.356424281617869E-20   -8.181844470848177E-20   4.897653074832381E-20    -5.151836535496058E-21   -2.976595012317089E-22   -4.567208095180717E-19   -5.300893553416667E-24   -3.1976098017182566E-25  -1.896812826394246E-24   7.0676923069117E-26
4.5E-6                    4.708861139709448E-19    9.610988452750505E-20    2.2374862756717257E-19   2.1868894832102204E-19   5.5048018652410105E-21   1.9803429204630732E-22   3.4527396559237136E-18   -3.3273320615248406E-23  -1.0259142654952722E-22  -3.5563352950577096E-24  1.6711178180556454E-25
4.9999999999999996E-6     6.274584644973375E-19    -6.183067653199249E-19   -3.458788013283297E-20   -2.4818312757738106E-19  3.7556329006455264E-20   2.579405572930526E-21    -1.6690454123576394E-18  5.504971093912942E-23    1.531363813507865E-22    2.0629364442500373E-23   -3.8496438541967844E-25
5.5E-6                    -2.706943986458006E-18   9.78824281678152E-19     -1.160897226383701E-18   -1.6465366662110423E-18  -2.6144012592280638E-20  3.721320032339742E-21    1.3967916072325072E-18   3.746163515529669E-23    3.2009334143430467E-22   -1.0598747804088248E-23  -9.542150803435489E-26
6.0E-6                    -5.9274972580332245E-18  2.679036468034537E-18    1.0555107918795851E-18   3.9419162614943383E-19   -2.4496122258414457E-19  -2.568463980889246E-20   8.226813542151405E-18    -1.595728553342604E-22   -7.74097191018372E-22    -1.0459930813189695E-22  1.6917284095274246E-24
6.5E-6                    7.956698827852075E-18    -1.1135875540537355E-17  5.567553231108778E-18    9.177638951282085E-18    2.7228999541206104E-20   -5.648716252148051E-20   -4.430515220399691E-17   4.03684796381005E-22     -6.992758579774222E-22   1.3234109680676505E-22   -3.998722903474293E-24
7.0E-6                    3.581809742665753E-17    -1.3456553831988396E-17  -5.3166196475797596E-18  4.328236351348239E-18    1.3196555546129725E-18   1.7059666119962547E-19   5.169672731658865E-19    3.104866161938089E-22    1.5855981726743017E-21   4.0799677074104567E-22   -6.1352055291509846E-24
7.499999999999999E-6      5.12150154332319E-19     5.049406132296182E-17    -3.047230878633756E-17   -4.030335528266419E-17   5.860011499437101E-19    4.538952242373528E-19    2.910619456630547E-16    -5.1175676941551384E-21  5.105077508777602E-22    -5.750719744392361E-22   3.084835430697479E-23
8.0E-6                    -1.5375673579902896E-16  5.3803508459606795E-17   7.22202858608455E-18     -5.358576829293902E-17   -5.7161316879055406E-18  -7.977657145439958E-19   4.698357151171787E-17    -8.721225326998522E-22   5.188257339044355E-21    -1.34596679438322E-21    1.747230585976284E-23
8.5E-6                    -1.9811601637179167E-16  -2.3370183703186864E-16  1.2346035722986952E-16   1.0667081769280022E-16   -6.2676939533900024E-18  -2.8759867245431707E-18  -9.779371060555032E-16   4.189078702265326E-20    1.1906490706952204E-20   1.074654612601359E-21    -1.2718978922969038E-22
9.0E-6                    2.4105012434217374E-16   -4.865046673829601E-16   1.9242556496058404E-17   2.640416099782624E-16    1.7558645372534225E-17   2.0011190811711826E-18   6.169081550193988E-17    1.9181872995798265E-20   -6.159399175292995E-20   3.1016546919947597E-21   2.9258535626983824E-23
9.499999999999999E-6      7.291733403415129E-16    1.3118029856900586E-16   -4.836213285661991E-16   -1.9398419551324418E-16  3.481951634409549E-17    1.3574318036455798E-17   3.832281796619182E-15    -2.3772170031874526E-19  -1.2651106932239077E-19  3.2810777980445427E-21   3.940652442673556E-22
9.999999999999999E-6      -2.923132411692567E-16   1.1259502538729312E-15   -5.864131251541974E-16   -1.1613170694602036E-15  -3.359435696992367E-17   1.5385036665761095E-19   2.4002648254503922E-15   -1.7233358870377163E-19  2.964664757943926E-19    3.543387373777925E-21    -8.547890573889373E-22
1.05E-5                   -3.0907996394426707E-15  -4.508699630662371E-16   4.932797742100303E-16    -7.830214085536738E-16   -1.4564111243615976E-16  -5.3095228645553336E-17  -5.774272545627863E-15   1.214249502789844E-18    8.558751463630541E-19    -2.98916351226941E-20    -1.688090592120143E-21
1.1E-5                    -4.139786900614841E-15   -6.6408933212676394E-15  1.0623223414623866E-15   1.9287723852758808E-15   -5.1924468294837597E-17  -4.3274962312577716E-17  -2.7329145780668317E-18  1.8475796810055295E-18   -6.389812383362577E-19   -8.524520371028755E-20   6.162836236596009E-21
1.15E-5                   -6.156834264743724E-16   -1.3394860729475093E-14  -2.4635828881173298E-15  2.401364802512503E-15    3.310635533747642E-16    1.3702278343941964E-16   2.7469863208657008E-14   -3.0400057969733272E-18  -3.78459212309005E-18    8.474734099320773E-20    1.2691486120099169E-20
1.2E-5                    4.378228112427313E-17    -1.4039498944226787E-14  -1.1142140813072175E-14  -6.514714619832438E-15   4.551906734440154E-16    2.303320855017359E-16    3.6165175272457395E-14   -7.327576684620319E-18   -4.579308782882096E-19   5.461707333692718E-19    -1.9283565355644018E-20
1.2499999999999999E-5     -1.7856289479822678E-14  -1.6930698723137083E-14  -2.010854257758586E-14   -2.1033551922792004E-14  -4.60920123577374E-16    -2.6014010414330155E-16  1.5984650154222402E-14   1.0434606751862737E-17   1.3243351083473427E-17   2.6067940200736033E-19   -6.815012307676323E-20
1.3E-5                    -5.938422551292771E-14   -5.926550393713462E-14   -2.3321753334912868E-14  -2.2933635999838777E-14  -2.1435689188037047E-15  -9.921495445589262E-16   7.58856686081012E-14     4.5373838958408057E-17   1.5436914174494572E-17   -1.753851126906981E-18   5.147213811076874E-21
1.35E-5                   -1.115265032200561E-13   -1.8320056960075694E-13  -3.634299458482411E-14   -8.245062808021352E-15   -2.549257469473918E-15   -4.56028800339218E-16    3.02321392954896E-13     3.444949615053469E-17    -1.98940758896595E-17    -2.5804953863575556E-18  2.5689531823646543E-19
1.4E-5                    -1.7421053829010143E-13  -3.898651689007853E-13   -1.1985653722392673E-13  -2.165827665090246E-14   4.023385481322031E-16    1.5955095980116893E-15   5.635494848895512E-13    -3.042144069534281E-17   -5.053958934385249E-17   3.7351282579456936E-18   4.0146597529138354E-19
1.45E-5                   -3.073747429761824E-13   -6.758874172371381E-13   -3.402950094639327E-13   -1.2972344472290528E-13  3.97708103037694E-15     1.6972019543836887E-15   7.462237299761402E-13    7.360692546354876E-17    3.001688771515147E-17    1.4612439671670427E-17   -7.779904198793122E-20
1.4999999999999999E-5     -6.480145016169809E-13   -1.1941177165615871E-12  -6.877202459017248E-13   -3.3219224521470443E-13  -2.983652145590774E-15   -4.007439987609817E-15   1.2151731345195945E-12   6.495010483320107E-16    2.242048289379104E-16    1.12763456334747E-17     -1.3572096719704792E-18
1.55E-5                   -1.3919051556256773E-12  -2.3317977588499938E-12  -1.150343490884138E-12   -5.385046430567753E-13   -3.150475733951032E-14   -1.279521558538071E-14   2.625372785297442E-12    1.6113540325371211E-15   3.3229425085601614E-16   -1.854205803400766E-17   -1.6484072564675398E-18
1.6E-5                    -2.783102983478309E-12   -4.515151569738747E-12   -1.9905440115947668E-12  -7.062287259504343E-13   -7.1297109621678E-14     -1.6765131244885157E-14  5.221343443513753E-12    2.717902373420295E-15    2.4991951185528663E-16   -3.399087662201773E-17   4.497620977785735E-18
1.6499999999999998E-5     -5.165660877825395E-12   -8.038185873512286E-12   -3.806454077714393E-12   -9.931887508935584E-13   -9.124834207079068E-14   -1.6216320889882814E-14  9.018378902251971E-12    5.261418413451897E-15    4.185553175749619E-16    6.639024791440514E-17    1.932304529636145E-17
1.7E-5                    -9.105977445701251E-12   -1.3284629981841092E-11  -7.124200645012339E-12   -1.672700648042237E-12   -9.989768221049767E-14   -2.8801429514417814E-14  1.49632759175067E-11     1.3500723851626562E-14   1.787130796830419E-15    3.4351877983093545E-16   2.4538529477222143E-17
1.75E-5                   -1.544706962283007E-11   -2.079000018556207E-11   -1.2107053163916444E-11  -2.8938363378674972E-12  -2.1625026576915721E-13  -8.124984031623021E-14   2.486313866984312E-11    3.320983236582225E-14    5.3613407092405316E-15   6.6515641510893045E-16   -4.9821231995320455E-18
1.8E-5                    -2.5030493548314983E-11  -3.033086956919141E-11   -1.8835310174946393E-11  -4.687937753413316E-12   -6.143949959239466E-13   -1.970773893798558E-13   3.9057187981582666E-11   7.003363783289532E-14    1.2115063416643399E-14   8.234842937270371E-16    -1.3567891164865794E-17
1.85E-5                   -3.804309715018015E-11   -4.002734171184828E-11   -2.732962650463784E-11   -7.27116819019975E-12    -1.32801234380351E-12    -3.980443405065621E-13   5.4622448102062487E-11   1.3659337278545373E-13   2.3502797378880785E-14   1.2734761906950616E-15   1.8425673083661774E-16
1.8999999999999998E-5     -5.345676413075809E-11   -4.750045724171694E-11   -3.675992945912976E-11   -1.1105038842699554E-11  -2.1870183092885924E-12  -7.123761539180825E-13   6.702561125900308E-11    2.6963434107945735E-13   4.3241952954819174E-14   3.986265828615946E-15    6.971990628042707E-16
1.95E-5                   -6.911730637002751E-11   -5.222193970187946E-11   -4.5343219456768506E-11  -1.6469687179412392E-11  -3.1548931980316493E-12  -1.1880915947448866E-12  7.343911030599192E-11    5.381689593449933E-13    8.296375017825707E-14    1.1832597799163807E-14   1.2872341417764294E-15
1.9999999999999998E-5     -8.234380938197817E-11   -5.522523708481661E-11   -5.1907919865579887E-11  -2.3176327895532395E-11  -4.786073598202202E-12   -1.9429518794014743E-12  7.354026000562385E-11    1.024542536075293E-12    1.7045950474729102E-13   2.64314508662527E-14     1.817124508253354E-15
2.05E-5                   -9.029524355609863E-11   -5.576712758793487E-11   -5.656127654899834E-11   -3.0850574155882546E-11  -8.051088054932696E-12   -3.2354628052088706E-12  6.740762870607853E-11    1.8027833558723483E-12   3.485548085819945E-13    4.896789506791883E-14    3.557929777946538E-15
2.1E-5                    -8.985769800289803E-11   -5.037795845946703E-11   -5.839485490985848E-11   -3.9032514584503906E-11  -1.3307703667392062E-11  -5.41498711395886E-12    5.4137946765173774E-11   2.962740622288279E-12    6.574917015108801E-13    8.887165295348359E-14    9.652468598280606E-15
2.1499999999999997E-5     -7.783662927204957E-11   -3.713233009527616E-11   -5.403788963341282E-11   -4.647624629460683E-11   -1.9432829804866862E-11  -8.632960683080809E-12   3.303169960867317E-11    4.654165655728662E-12    1.1279569109816979E-12   1.7475750720391048E-13   2.3277496497158582E-14
2.2E-5                    -5.217874117351031E-11   -1.8830440633136445E-11  -4.1307896375327953E-11  -5.0820787279325665E-11  -2.4394641287972616E-11  -1.249327724473573E-11   5.035749599851055E-12    7.021945107879626E-12    1.8255766944891048E-12   3.5191069355762614E-13   4.6336310386768464E-14
2.2499999999999998E-5     -1.3480361554307816E-11  1.3492772340997714E-12   -2.3240337368233285E-11  -5.0016255394872045E-11  -2.697716571688313E-11   -1.6057654694774458E-11  -2.8014321156999008E-11  9.976910844429696E-12    2.9126218208167077E-12   6.631202116874206E-13    8.412031026597039E-14
2.3E-5                    3.4988597482324166E-11   2.628896135652858E-11    -4.394946095744198E-12   -4.421121970641925E-11   -2.770099030022621E-11   -1.836650671272001E-11   -6.555724982092828E-11   1.3008869359062893E-11   4.592517590737169E-12    1.1388025099522033E-12   1.54820811429497E-13
2.35E-5                   8.932426324156318E-11    6.288443728623784E-11    1.7056507717824114E-11   -3.5298382813470766E-11  -2.7671827120455173E-11  -1.9047156167598076E-11  -1.0951274569593814E-10  1.5347875102357363E-11   6.874145405042711E-12    1.821866465047559E-12    2.930156769189462E-13
2.4E-5                    1.473087642785161E-10    1.13210403195349E-10     4.901900842869917E-11    -2.4160894887821998E-11  -2.66695661791341E-11    -1.8373520331205857E-11  -1.6350730898609078E-10  1.6436455534601498E-11   9.365488002040474E-12    2.7987494347852482E-12   5.403276536330936E-13
2.45E-5                   2.0883047856193848E-10   1.719423966858892E-10    9.575104249060058E-11    -9.00598602081942E-12    -2.2904772203642107E-11  -1.6680248732331607E-11  -2.3063681181840872E-10  1.6228167474729746E-11   1.143047422210679E-11    4.162200691623011E-12    9.348279473971179E-13
2.4999999999999998E-5     2.746747979700551E-10    2.340912989318479E-10    1.5276680364279353E-10   1.3251435799388044E-11   -1.480669664004193E-11   -1.3764633949790577E-11  -3.108543603460217E-10   1.4933422277282462E-11   1.2683475543043938E-11   5.884054922880255E-12    1.5158781053491505E-12
2.55E-5                   3.4583616503360643E-10   3.0092112032556087E-10   2.1383168204936642E-10   4.466828601488898E-11    -2.614028331956128E-12   -8.95555187085013E-12    -3.995247843356039E-10   1.250153952011836E-11    1.327416730354803E-11    7.705371125493629E-12    2.3350532394552155E-12
2.6E-5                    4.2381398726891395E-10   3.748385498564799E-10    2.7887041133362583E-10   8.570530179765727E-11    1.2146631172560558E-11   -1.7650360177660107E-12  -4.886431621893399E-10   8.501235373783483E-12    1.3513785759502591E-11   9.199056151932282E-12    3.438038634277922E-12
2.65E-5                   5.098224397781834E-10    4.51977813333204E-10     3.511973918357592E-10    1.359952114611999E-10    2.858611061524434E-11    7.687598088248364E-12    -5.704739802841339E-10   2.535257719965149E-12    1.3217012870340105E-11   1.0016402575603551E-11   4.80545384390369E-12
2.7E-5                    6.021764951193827E-10    5.249167781202899E-10    4.2985746085277085E-10   1.9460531174774925E-10   4.763045190711307E-11    1.909432669850937E-11    -6.409583054304988E-10   -5.449022217513748E-12   1.1636340440784211E-11   1.011218930098313E-11    6.300778747778047E-12
2.7499999999999998E-5     6.946675629936669E-10    5.909331831561668E-10    5.089617335551231E-10    2.597946375430447E-10    7.138555282391038E-11    3.28428235877298E-11     -6.999108105180545E-10   -1.546166451907863E-11   8.16760228464814E-12     9.708109058565838E-12    7.693747758257033E-12
2.8E-5                    7.782273017118207E-10    6.513915564800249E-10    5.831243876705467E-10    3.2943623167914465E-10   1.0133718105663167E-10   5.02693081531212E-11     -7.476016319088895E-10   -2.793293575087414E-11   2.8864501375712193E-12   8.991220804348482E-12    8.76275392963329E-12
2.8499999999999998E-5     8.436126146947016E-10    7.021331202579096E-10    6.496145538979789E-10    4.018891679923492E-10    1.3673969021505995E-10   7.262670470940096E-11    -7.804643237434049E-10   -4.3501251383504814E-11  -3.921105416617323E-12   7.829121841105339E-12    9.391412699562367E-12
2.9E-5                    8.817671537335728E-10    7.30323458913105E-10     7.052822982945541E-10    4.760377593989663E-10    1.7446518350023793E-10   9.945749785718039E-11    -7.89527131917913E-10    -6.219794095567046E-11   -1.2651346831699094E-11  5.792951849021619E-12    9.567830804584764E-12
2.95E-5                   8.830949278464456E-10    7.241214932873597E-10    7.441531320816052E-10    5.503062251375997E-10    2.1084823311697542E-10   1.280012698384198E-10    -7.62973806005398E-10    -8.306251956748242E-11   -2.432377524455116E-11   2.4573685062671525E-12   9.289139986260784E-12
2.9999999999999997E-5     8.389825016607343E-10    6.814240916849937E-10    7.584182697742128E-10    6.216391682065976E-10    2.443393253524931E-10    1.546241704758711E-10    -6.906893754918191E-10   -1.0476548091556303E-10  -3.93744972089418E-11    -2.37202740139708E-12    8.46720816049028E-12
3.05E-5                   7.44126034182287E-10     6.0471300143417E-10      7.402641646119643E-10    6.850181379243629E-10    2.7639236102237733E-10   1.7728661272527168E-10   -5.667399013409041E-10   -1.2650399310648343E-10  -5.681278604302694E-11   -8.766377003636632E-12   6.916790441897639E-12
3.1E-5                    5.951213754977331E-10    4.896806219181826E-10    6.827544979612666E-10    7.333675588125437E-10    3.0922862582675555E-10   1.966724862545953E-10    -3.87723470521642E-10    -1.4809386346419927E-10  -7.500921656042937E-11   -1.6932266766544315E-11  4.406920430720181E-12
3.15E-5                   3.8643537414013767E-10   3.2400760859467324E-10   5.801501476311465E-10    7.579327828400678E-10    3.423283075160749E-10    2.146058686937563E-10    -1.4953357429165412E-10  -1.6920600748416988E-10  -9.326780399685081E-11   -2.719542881980825E-11   7.041752889788494E-13
3.2E-5                    1.105372537042688E-10    9.730257978983887E-11    4.2766092956451325E-10   7.49439587806797E-10     3.7098280434601625E-10   2.311280929828601E-10    1.5273722307582717E-10   -1.8864457022926019E-10  -1.1217141645951063E-10  -3.96414276431799E-11    -4.4060561597707944E-12
3.25E-5                   -2.3635529253628884E-10  -1.9169034210469218E-10  2.2069126886340187E-10   6.996776981318408E-10    3.8811471440249904E-10   2.4311294202506575E-10   5.206892552306618E-10    -2.043725706257472E-10   -1.322010884354251E-10   -5.387089697167285E-11   -1.1085557613286156E-11
3.2999999999999996E-5     -6.505896978592815E-10   -5.381790935538735E-10   -4.514909071877211E-11   6.024918345140583E-10    3.874292824842247E-10    2.4566318605810915E-10   9.488888604298458E-10    -2.1416371177195218E-10  -1.5237421403280746E-10  -6.924289088214722E-11   -1.9430144226432402E-11
3.35E-5                   -1.1248129153959763E-9   -9.374123422156296E-10   -3.726454409199091E-10   4.5355298736446896E-10   3.6520571594054976E-10   2.3459312983779076E-10   1.4261559114725305E-9    -2.1622669101228663E-10  -1.7059070782099488E-10  -8.533063816144947E-11   -2.95570891363113E-11
3.4E-5                    -1.6533754446385603E-9   -1.3850608153323386E-9   -7.613560834728416E-10   2.493118241011356E-10    3.19802860901171E-10     2.075288910750609E-10    1.9402163471675907E-9    -2.0920850900289692E-10  -1.8511025209105928E-10  -1.0201434260621369E-10  -4.170677714893502E-11
3.45E-5                   -2.23107315936513E-9     -1.8733807631073748E-9   -1.2068625865549632E-9   -1.3826785390386605E-11  2.4998378866876926E-10   1.6321536431756766E-10   2.479746811137656E-9     -1.9152403009643772E-10  -1.9519006949455168E-10  -1.191224373070697E-10   -5.609001774204701E-11
3.5E-5                    -2.8465672276645067E-9   -2.3893080640858673E-9   -1.7007342320515661E-9   -3.392447135717738E-10   1.538123466897526E-10    1.006382295913065E-10    3.0313452886153987E-9    -1.6065861272496191E-10  -2.0017057760430683E-10  -1.3608526609609392E-10  -7.243833201727755E-11
3.5499999999999996E-5     -3.4784534290731155E-9   -2.9154820101406972E-9   -2.2308063648336373E-9   -7.286593986337237E-10   2.8995206299885983E-11   1.9127255814698543E-11   3.5752472925066593E-9    -1.1329378773240824E-10  -1.9833420611511243E-10  -1.51928387271981E-10    -8.973518718349293E-11
3.6E-5                    -4.096859409887864E-9    -3.4308919515104886E-9   -2.7816429795663675E-9   -1.180192630693299E-9    -1.2599271062686954E-10  -8.120323974841447E-11   4.084400417960722E-9     -4.641107676246514E-11   -1.8694937879217655E-10  -1.6542794332801514E-10  -1.066518117987107E-10
3.65E-5                   -4.666677864111844E-9    -3.910112909627351E-9    -3.334706010203013E-9    -1.6869987032640585E-9   -3.113383903279796E-10   -1.9978021126317142E-10  4.527018455002169E-9     4.144866053929314E-11    -1.6321081824096019E-10  -1.7514031694652582E-10  -1.2243754371017E-10
3.7E-5                    -5.149620110847263E-9    -4.323266251526043E-9    -3.867562008952641E-9    -2.23710677292732E-9     -5.261858568417389E-10   -3.3635531393214217E-10  4.869645397139305E-9     1.4977520012157303E-10   -1.2480614906420067E-10  -1.7933199461811303E-10  -1.3728161690876145E-10
3.75E-5                   -5.505995623173211E-9    -4.637894469295777E-9    -4.352488550645156E-9    -2.8143298375008903E-9   -7.687027153407416E-10   -4.908191500014622E-10   5.0788489254780746E-9    2.767087812459604E-10    -6.973185383467641E-11   -1.7602306426157476E-10  -1.5155554815082895E-10
3.7999999999999995E-5     -5.696509115099792E-9    -4.8214444735777395E-9   -4.756356458936216E-9    -3.399372974064907E-9    -1.0351768641608705E-9   -6.615444339813467E-10   5.121787432562078E-9     4.199287758623873E-10    3.823484010521946E-12    -1.63209731517511E-10    -1.6458735448085517E-10
3.85E-5                   -5.682961847904341E-9    -4.842724105835571E-9    -5.0433111265469555E-9   -3.970092468154226E-9    -1.3191356864070077E-9   -8.436963628557158E-10   4.966483248818255E-9     5.76912693680928E-10     9.693081888745135E-11    -1.391154190321209E-10   -1.7422832093840165E-10
3.9E-5                    -5.428878746702809E-9    -4.672099766051015E-9    -5.178685933969881E-9    -4.500537064669034E-9    -1.6118279454913871E-9   -1.0293718271044756E-9   4.582443859924121E-9     7.443650175870312E-10    2.0920945701533377E-10   -1.022744617996939E-10   -1.7764799427798203E-10
3.95E-5                   -4.902326663570834E-9    -4.281531929864366E-9    -5.130518054807703E-9    -4.959661234889021E-9    -1.903424120071163E-9    -1.2095262151609562E-9   3.942241465737417E-9     9.173952515357001E-10    3.3876473486963207E-10   -5.1409560580379966E-11  -1.7250329078148012E-10
3.9999999999999996E-5     -4.07983936974698E-9     -3.646050693965127E-9    -4.868172010716134E-9    -5.311268160205091E-9    -2.1827807563802356E-9   -1.3755789464649283E-9   3.0243426912837038E-9    1.0891527887086848E-9    4.827776450847823E-10    1.467261314549586E-11    -1.5738954408700348E-10
4.0499999999999995E-5     -2.9479150494243422E-9   -2.7471904423825083E-9   -4.362193931094345E-9    -5.5158531678711915E-9   -2.43525345737127E-9     -1.5189759247782637E-9   1.8166836723311916E-9    1.2511038906862525E-9    6.38007335041326E-10     9.685193765854663E-11    -1.3143548482529554E-10
4.1E-5                    -1.5017758573788135E-9   -1.576519435226002E-9    -3.5879313278243516E-9   -5.5333455030500655E-9   -2.641146286012836E-9    -1.629463445342218E-9    3.198858158926241E-10    1.3936103072143986E-9    8.006504707885965E-10    1.9515086235921695E-10   -9.375442799920262E-11
4.15E-5                   2.5508207324670834E-10   -1.3675154022615607E-10  -2.52955881803761E-9     -5.325239357487074E-9    -2.777719835325586E-9    -1.694327916597069E-9    -1.4509022852604907E-9   1.5064066400109516E-9    9.657230525201116E-10    3.083823399675689E-10    -4.3290784679735274E-11
4.2E-5                    2.3084317917399905E-9    1.5591863764542056E-9    -1.180801083234617E-9    -4.855903529973579E-9    -2.8240962539436244E-9   -1.699657684984689E-9    -3.4658734107372692E-9   1.5787992578479436E-9    1.126562812990449E-9     4.344476455602173E-10    2.1027252186026726E-11
4.2499999999999996E-5     4.6294406696923525E-9    3.48804624126468E-9      4.5547727486896593E-10   -4.0942584477028555E-9   -2.764784352730431E-9    -1.6325820483905938E-9   -5.681592225794362E-9    1.5996242626788894E-9    1.2748607077033534E-9    5.710007592156165E-10    1.0004136141089435E-10
4.2999999999999995E-5     7.171402531612802E-9     5.613745419007785E-9     2.364825255683056E-9     -3.0166355612471465E-9   -2.5884399977456712E-9   -1.4829093960042344E-9   -8.042032381682293E-9    1.557245296764758E-9     1.4011055105435815E-9    7.155837050171376E-10    1.939844654704714E-10
4.35E-5                   9.867770620547673E-9     7.88472655441428E-9      4.5172589150422685E-9    -1.6099770347437016E-9   -2.2834595794122895E-9   -1.243520265017376E-9    -1.0478574498604565E-8   1.4400743612646245E-9    1.495028854200478E-9     8.647352333367008E-10    3.0205157443924526E-10
4.4E-5                    1.2632044678605436E-8    1.023356143238281E-8     6.866304208085863E-9     1.261777156334363E-10    -1.8356034534275823E-9   -9.097552806471672E-10   -1.290893616992594E-8    1.2378124726923558E-9    1.5458693054452106E-9    1.0127259086773916E-9    4.223617719586237E-10
4.45E-5                   1.5359935161237717E-8    1.2578393158257908E-8    9.351331817874727E-9     2.179238839200381E-9     -1.230718088831731E-9    -4.785574720957003E-10   -1.523655229648184E-8    9.428445172051822E-10    1.5426799010815954E-9    1.151208647772688E-9     5.525079418122027E-10
4.4999999999999996E-5     1.793280609812779E-8     1.4825142555746384E-8    1.1899286590624196E-8    4.523331511015746E-9     -4.6012643388765785E-10  5.1465303666655365E-11   -1.7352642243788333E-8   5.509268081008519E-10    1.4748923412012961E-9    1.2703411946399666E-9    6.900918615608817E-10
4.5499999999999995E-5     2.022103411979409E-8     1.6870845844418487E-8    1.442399854990749E-8     7.117953822971086E-9     4.760575171293359E-10    6.783796328915274E-10    -1.9141659486821242E-8   6.109068968525079E-11    1.3329612498904435E-9    1.3604881790070694E-9    8.324302010698443E-10
4.6E-5                    2.2087793200907856E-8    1.8607871932883855E-8    1.6825350386692602E-8    9.905727952703689E-9     1.5691220044849136E-9    1.3946585560579819E-9    -2.048794333587164E-8    -5.243604835205584E-10   1.108771500972704E-9     1.4130205248598492E-9    9.754731445035285E-10
4.65E-5                   2.339491039709739E-8     1.992687811056745E-8     1.8990783578934458E-8    1.2810636221044747E-8    2.8027787050097823E-9    2.1862268866680712E-9    -2.1280533296079616E-8   -1.1990817821211724E-9   7.958343633406661E-10    1.4197275368691839E-9    1.112874064985564E-9
4.7E-5                    2.401081132121205E-8     2.0718063211278334E-8    2.079935805351123E-8     1.5737863470061415E-8    4.152684563727224E-9     3.0332965132569647E-9    -2.141581606747614E-8    -1.9515717110242503E-9   3.8963855306456785E-10   1.3718695421489194E-9    1.2360099232557233E-9
4.7499999999999996E-5     2.3818453861889347E-8    2.0874227873142574E-8    2.212751126876856E-8     1.8575376189189934E-8    5.58546650844123E-9      3.911379231486274E-9     -2.0800844268114008E-8   -2.7646282387767192E-9   -1.1155575562273722E-10  1.2602173372551738E-9    1.3348918115905888E-9
4.8E-5                    2.2721250385709617E-8    2.0298357214292413E-8    2.285545297797968E-8     2.1196779284568418E-8    7.059215148383719E-9     4.791034369105993E-9     -1.935974122078752E-8    -3.6155620411284206E-9   -7.055432188723532E-10   1.0762394188017986E-9    1.3993515042345297E-9
4.85E-5                   2.0646986912747184E-8    1.8912803683810117E-8    2.2872728099999163E-8    2.346491190697022E-8     8.52501310155627E-9      5.637024520402148E-9     -1.7042030944913197E-8   -4.476527178153621E-9    -1.3850158674222757E-9   8.133675736830014E-10    1.4199598396108802E-9