% Model:              Untitled.mph
% Version:            COMSOL 6.0.0.405
% Date:               Jul 15 2025, 15:34
% Dimension:          1
% Nodes:              401
% Expressions:        11
% Description:        Point graph
% Time (s)                Displacement field, Y component Displacement field, Y component Displacement field, Y component Displacement field, Y component Displacement field, Y component Displacement field, Y component Displacement field, Y component Displacement field, Y component Displacement field, Y component Displacement field, Y component Displacement field, Y component
0                         4.261462856841868E-31    3.376158104182685E-31    3.3025937688311112E-31   -1.3494246612022996E-31  7.936308451698134E-32    8.393958902122895E-34    1.1473914600531958E-35   5.725604323976649E-37    -1.2825979453165695E-31  -3.3656512331089437E-32  -7.05487324845455E-33
5.0E-7                    1.5109029650320642E-21   5.570393306044053E-24    -4.626511935434302E-22   -8.045584733008929E-23   6.208237565512748E-23    -1.1503169684984417E-25  -2.4535859129417408E-26  -7.146161654056809E-27   2.2858819560078263E-25   -3.9981683935197885E-24  -4.461822783882438E-25
1.0E-6                    -1.1426043196811947E-20  -2.453459405973533E-21   -1.2685056273656989E-21  7.576080353086152E-22    -3.7821059079682884E-22  -7.661603943997239E-25   4.3136003670769515E-25   1.5781618111624826E-26   1.7633431964838079E-22   5.99634590282061E-23     5.66720386512851E-24
1.5E-6                    2.6032570371684874E-20   2.1084115869733092E-20   1.631638903684652E-20    -2.5816164968521376E-22  -3.294826742826807E-22   8.315410731063284E-24    -1.316273406381394E-24   3.2191771544554175E-26   -1.099469797812861E-21   -2.0871531493231566E-22  -2.0151478812359886E-23
2.0E-6                    3.288312162888802E-22    -3.180749967366106E-20   -1.152303509121922E-20   -5.537470602147531E-21   3.779242616392914E-21    -3.441834303019513E-23   2.7117116031836303E-24   -3.3812562986962946E-26  3.125181724522421E-21    4.520420187875963E-22    9.003429303850816E-23
2.4999999999999998E-6     -1.694306254750895E-19   -1.1535899218081168E-19  -6.140616082636807E-20   -1.3230264008631715E-20  4.411217612016704E-21    2.419133835480593E-23    -5.400485733071107E-25   5.012177986136018E-25    -5.487026271212453E-22   -5.292492668308123E-22   -2.104304587782012E-22
3.0E-6                    2.501123279150141E-19    2.1275411414378818E-19   -7.175805040685093E-20   7.281570720086108E-20    -1.1148270288332577E-20  1.8222319881600412E-22   -2.462255854327397E-23   -1.588899299138069E-24   -2.7552129395451314E-20  -2.616578580808941E-21   8.785769170429646E-23
3.5E-6                    8.251136883768017E-19    5.212140058838576E-19    7.576360888914795E-20    1.1568610449995163E-19   -6.585679551859036E-20   -2.7118436573033114E-22  3.605884039709048E-23    -6.832178443353716E-24   -3.104837870274537E-21   6.6370117119227745E-21   1.4257290705186496E-22
4.0E-6                    -1.0772102807447016E-18  -5.266853154128379E-19   1.2625987123830539E-18   -4.038611047573269E-19   4.65664125876319E-20     -8.4046565144437555E-22  7.501595861342709E-24    1.6982622302272448E-23   1.9544948071937054E-19   1.8424685540552308E-20   -1.6235950855148879E-21
4.5E-6                    -4.185802122851517E-18   -2.820454302138382E-18   1.0323906718581492E-18   -7.53608657308334E-19    4.586858390039608E-19    1.0340614230085128E-21   -2.594046853437671E-22   4.527500588844042E-23    2.1521941556075726E-19   -3.2192780901594074E-20  8.337108698841706E-21
4.9999999999999996E-6     -2.23537364488085E-19    -2.4129845791524043E-18  -6.651952649312998E-18   9.372223564054235E-19    -1.2201164458913951E-19  2.8514047592577526E-21   7.867595349238819E-22    -8.893547722282577E-23   -9.679639330787976E-19   -1.2347089044909212E-19  1.458930622862473E-20
5.5E-6                    1.4652415494217944E-17   7.688820758232157E-18    -9.804707473739255E-18   3.8221742089415365E-18   -1.5454316785099993E-18  -3.2226375166108713E-21  2.1866458210971587E-21   -1.680884550742671E-22   -2.2568872167023152E-18  6.936557025931886E-20    -7.007790902018572E-20
6.0E-6                    2.1650965346455285E-17   1.9890621729771512E-17   1.905222701264076E-17    2.238896267257284E-18    -2.4047905506474735E-19  -1.1035530791985715E-21  -4.705173357706375E-21   2.900592490747129E-22    2.319848716816835E-18    6.448874914867365E-19    -1.6731603662844392E-19
6.5E-6                    -2.0568285986798058E-17  -4.467910942911089E-18   4.998439299149914E-17    -1.1292469334401837E-17  1.1519183921970436E-18   2.4092259203888708E-20   -1.4809732779185552E-20  1.6138869409469312E-23   1.3689898542074292E-17   4.026869571434625E-19    2.970403488160227E-19
7.0E-6                    -1.0936078475267741E-16  -7.182922884917313E-17   -1.484834011152401E-17   -2.585415003335833E-17   2.313825623919689E-18    -2.013276638089673E-20   8.396358937537596E-21    -1.149244550223041E-21   7.945582551988992E-18    -2.3128706007122432E-18  1.3433845108623947E-18
7.499999999999999E-6      -8.796298120900198E-17   -5.557022665189099E-17   -1.5776116881277374E-16  9.77837726935021E-18     1.7875288296099325E-17   -1.7279390043157314E-19  6.112004660610658E-20    3.74332460012588E-21     -4.5746384125720227E-17  -4.593584083365553E-18   -1.5118209326124483E-19
8.0E-6                    2.393377115264293E-16    1.711273404680351E-16    -1.224689011000011E-16   1.0585838803921971E-16   3.494876683843206E-18    -6.804537214907877E-20   3.4290019987910365E-20   9.45776976187476E-21     -9.777619033493952E-17   4.656074971982084E-18    -7.0074042710236E-18
8.5E-6                    5.910664355344957E-16    3.498613825104645E-16    2.6267204031313613E-16   8.960314303210105E-17    -1.1975218630723122E-16  6.190740287735822E-19    -1.212963338511466E-19   -2.0808546341395373E-20  2.1600303610654318E-17   2.5138861840812702E-17   -7.045259689811124E-18
9.0E-6                    6.534386086105326E-17    -7.298221468823712E-17   6.005710144439326E-16    -2.0663936830973853E-16  -1.0302779608913609E-16  1.1322484383403807E-18   -2.214126698105978E-19   -6.643612716473908E-20   3.703082693645228E-16    7.198988674354144E-18    2.2926187837858232E-17
9.499999999999999E-6      -1.518616626967545E-15   -9.069835793990256E-16   2.4626968889303006E-16   -4.361245434607876E-16   4.946569458544648E-16    -3.9333906853107707E-19  -1.0318141944341923E-19  3.844831716924141E-20    4.3554332784949103E-16   -9.120320519856659E-17   5.505074857418683E-17
9.999999999999999E-6      -2.1284473089629234E-15  -8.623819500204381E-16   -6.315001159160946E-16   8.493226601155429E-17    9.217458940169653E-16    -4.7405659011557814E-18  2.200712244998219E-19    2.9957535343128287E-19   -7.630106681749707E-16   -1.0910147283566412E-16  -2.6821050419614186E-17
1.05E-5                   4.356587811137669E-16    1.4582144962623943E-16   -1.2706711952275284E-15  1.1978034105848238E-15   -6.13219408701921E-16    -5.446171056053509E-18   1.032093080469052E-18    1.3839929922541013E-19   -2.9863193638433427E-15  2.0567695688709437E-16   -2.383654611800129E-16
1.1E-5                    3.580616797156448E-15    -7.121157565758809E-16   -1.6060235643182605E-15  1.6141489037216478E-15   -2.4289496759107378E-15  1.1285007774685988E-17   2.132682892417162E-18    -8.598961144071924E-19   -2.9994007371695423E-15  4.2771251304886313E-16   -1.901000572798527E-16
1.15E-5                   2.7284003136879546E-16   -4.6533987756590756E-15  2.633642149453085E-16    5.845353557990606E-16    2.1749496739636735E-15   3.351008315451585E-17    2.1228312370831884E-19   -1.2625432845383784E-18  2.2226434755510903E-15   -5.639579329077786E-16   5.689779216221287E-16
1.2E-5                    -1.1432415811089419E-14  -7.0883945855446595E-15  1.1101478265374519E-14   -1.0613689261469952E-15  1.3754139111872424E-14   -5.261430849171804E-18   -8.453342640963216E-18   1.205705893107466E-18    6.889324634721676E-15    -2.26856708452271E-15    1.2164312180808283E-15
1.2499999999999999E-5     -2.286552033788753E-14   -8.615063147454673E-15   2.8615417664952176E-14   -1.257766685013202E-15   1.8360680898309888E-14   -1.1483524844649257E-16  -1.53579999324021E-17    4.594651289091338E-18    -5.04523338503128E-15    -1.7305153322885322E-15  -5.528840429259147E-16
1.3E-5                    -2.8392373478685447E-14  -2.910760324890786E-14   2.082784709250209E-14    6.034646443245169E-15    1.0556681514338146E-14   -6.914874448885329E-17   3.558787079919764E-18    1.6957066916377673E-18   -4.350398479088457E-14   -2.3719061079552192E-17  -4.7042293647662625E-15
1.35E-5                   -4.578904922291104E-14   -8.784000603693375E-14   -3.7404243535263755E-14  3.246179377202053E-14    2.2968900277786104E-14   3.5355980427537136E-16   5.391177686798977E-17    -9.066040310257995E-18   -9.265695792993139E-14   -7.595391022838166E-15   -4.848857485729255E-15
1.4E-5                    -1.1345690280948451E-13  -1.6776880541167688E-13  -6.65815872627349E-14    7.843053314922822E-14    9.453312383220055E-14    6.487497881426999E-16    7.622374199450729E-17    -1.3819410502346303E-17  -1.152263036445901E-13   -3.0572145299552253E-14  4.629356196227373E-15
1.45E-5                   -2.688703943104856E-13   -2.5676320773208056E-13  1.0306069806418275E-13   1.0894354060347297E-13   2.0686985259494648E-13   -2.7066828160558047E-16  -2.0162829866035095E-17  2.7841287724402223E-18   -9.464522755183311E-14   -5.2586937347082985E-14  1.1659267891885889E-14
1.4999999999999999E-5     -5.530257839796499E-13   -4.71366988459361E-13    4.760121285805763E-13    8.710771677443495E-14    3.282139030135521E-13    -1.899306421980458E-15   -2.0025368655705893E-16  3.171172852821152E-17    -1.1599881017831423E-13  -6.059987375456893E-14   -1.0716837846287995E-14
1.55E-5                   -1.0525384495566974E-12  -1.0773108539493761E-12  7.028506901926562E-13    8.651395895764285E-14    5.515823603292906E-13    -4.94277272094786E-16    -1.8990630446014976E-16  4.175773023010701E-17    -4.2203617503340307E-13  -1.059733349676549E-13   -6.321984981583153E-14
1.6E-5                    -1.934113610013608E-12   -2.2968467842768257E-12  4.648135484272811E-13    3.4389865046954203E-13   1.0782389590069842E-12   6.785281676273901E-15    3.067546069873949E-16    6.983123721332765E-18    -1.2560109378257163E-12  -2.9873274921137336E-13  -9.359335823458041E-14
1.6499999999999998E-5     -3.4796189369881205E-12  -4.192334918974473E-12   2.1297408123311427E-13   1.0882693861371689E-12   2.0044977864294866E-12   1.3608560539679308E-14   1.0984386909141145E-15   -7.453296297835402E-17   -2.4580973829606666E-12  -6.966119784700594E-13   -6.28259176653234E-14
1.7E-5                    -6.213957611628866E-12   -6.998939439365927E-12   1.1588241383048563E-12   2.2677645781813813E-12   3.318659192971008E-12    7.233753300145238E-15    1.3917065926246999E-15   -1.3813989184165732E-16  -3.3907421687575383E-12  -1.2422890745715195E-12  -5.801068513301359E-14
1.75E-5                   -1.1048690049589054E-11  -1.1602709294894818E-11  4.008451970620831E-12    3.5625608717117533E-12   5.281313928965474E-12    -7.185605922540256E-15   7.957246178873613E-16    1.623746770327915E-17    -3.872672381360597E-12   -1.9082385508879605E-12  -2.7045319726701424E-13
1.8E-5                    -1.904000819113436E-11   -1.9237783253718766E-11  7.805206896303873E-12    4.8546729079850515E-12   8.548417766946937E-12    1.1108837607607043E-14   8.868495363547104E-16    5.807590352852245E-16    -5.386391537564697E-12   -2.9479562625957265E-12  -7.846082040771304E-13
1.85E-5                   -3.055379350982991E-11   -3.015971537518477E-11   1.0782632181362378E-11   6.777120732821682E-12    1.3493138873523097E-11   9.902122498352306E-14    5.263762773929201E-15    1.2632353833490968E-15   -1.0443015025069633E-11  -4.967229836167441E-12   -1.4391538460589293E-12
1.8999999999999998E-5     -4.4523176306781485E-11  -4.262721830870438E-11   1.2874873342519171E-11   1.0712675570747705E-11   1.9496694637300988E-11   2.175387391853549E-13    1.6838164345050133E-14   1.241786164881891E-15    -1.9642574705533586E-11  -8.643315124238482E-12   -2.0514169159142574E-12
1.95E-5                   -5.886000587217027E-11   -5.378892172472463E-11   1.6974112374969236E-11   1.7928304718897032E-11   2.5420928385365366E-11   2.8293167155311294E-13   3.4912276583018564E-14   5.649474061339267E-16    -2.96924067491155E-11    -1.4204163615781696E-11  -2.8500093840666677E-12
1.9999999999999998E-5     -7.181473587204084E-11   -6.197312759021337E-11   2.6752159390019947E-11   2.8208161112208682E-11   3.0813963935065264E-11   3.5268652326785557E-13   5.76824531861989E-14     1.8824367951868035E-15   -3.585949768224261E-11   -2.108072226229975E-11   -4.570172286606041E-12
2.05E-5                   -8.252545053123918E-11   -6.774180945205146E-11   4.257556889035531E-11    3.9046765566621883E-11   3.5955671257974595E-11   7.207649220373996E-13    9.314309341257237E-14    9.259087156021066E-15    -3.6994194252789514E-11  -2.8188943448091643E-11  -7.938045286268895E-12
2.1E-5                    -8.982216769006345E-11   -7.21294224827573E-11    5.955343803979438E-11    4.650506739687757E-11    4.026264247831064E-11    1.643450879067526E-12    1.7297799494672114E-13   2.3964195832101314E-14   -3.692364882893156E-11   -3.4686174384014095E-11  -1.2987988634696709E-11
2.1499999999999997E-5     -9.108488054463701E-11   -7.407300353568836E-11   7.007406948519501E-11    4.75062656517612E-11     4.120349061790569E-11    2.970085370377018E-12    3.5628766055867955E-13   4.365013528374632E-14    -3.955690595961586E-11   -4.028071775093112E-11   -1.8962148644294192E-11
2.2E-5                    -8.344715441202636E-11   -7.042938524299761E-11   6.89449024406741E-11     4.156207658147465E-11    3.569438364604596E-11    4.379993622152616E-12    7.108460314150164E-13    7.013662687945702E-14    -4.2990432868003387E-11  -4.4598836511094434E-11  -2.497876615891319E-11
2.2499999999999998E-5     -6.629434291986434E-11   -5.86679385364081E-11    5.669200200824746E-11    3.014623518392886E-11    2.268264719912258E-11    6.223689813379974E-12    1.2771631237884076E-12   1.1986251486505083E-13   -3.996509882963747E-11   -4.651875149697995E-11   -3.077212049030061E-11
2.3E-5                    -4.1518271536040514E-11  -3.8516814832291783E-11  3.817091922708089E-11    1.4632761515595547E-11   3.735766209290257E-12    9.769021121524911E-12    2.0589529854908473E-12   2.2639862050837998E-13   -2.4826219811333275E-11  -4.454148637645428E-11   -3.6622418611218966E-11
2.35E-5                   -1.0711822591239858E-11  -1.024099975522139E-11   1.7900961995005054E-11   -4.531446127029334E-12   -1.910831232471981E-11   1.5973618679643957E-11   3.1118729203069607E-12   4.3491387960614103E-13   8.182635417078505E-13    -3.765654896102386E-11   -4.245126858778012E-11
2.4E-5                    2.722930930572809E-11    2.7735749955873325E-11   -3.5572401692696562E-12  -2.673678514792801E-11   -4.533333018927196E-11   2.393500148445338E-11    4.735521758142661E-12    7.959804543991833E-13    3.030409465858473E-11    -2.540858184941528E-11   -4.7058878771734375E-11
2.45E-5                   7.537565072336009E-11    7.799681133684594E-11    -2.9144717012931125E-11  -5.0542860667255094E-11  -7.521148986015581E-11   3.108426168100022E-11    7.575446495679293E-12    1.3621985089798377E-12   5.930204364788988E-11    -7.313621715533323E-12   -4.840939053723461E-11
2.4999999999999998E-5     1.366090914389073E-10    1.4103201052550824E-10   -6.189449028176649E-11   -7.509402111825051E-11   -1.0778430913162735E-10  3.5132547698104115E-11   1.2308065782125136E-11   2.199728248484628E-12    8.979288436614786E-11    1.7116898707069222E-11   -4.475155293581621E-11
2.55E-5                   2.1265826774682517E-10   2.143062736898375E-10    -1.0233363271431732E-10  -1.016442104540358E-10   -1.4090909717010638E-10  3.540504586200678E-11    1.8852373707185833E-11   3.44067364315343E-12     1.2664326937253778E-10   4.765293493791966E-11    -3.5486481027272994E-11
2.6E-5                    3.0369009801459954E-10   2.9460663163273786E-10   -1.4889793363032655E-10  -1.3231444840504048E-10  -1.7360754339436246E-10  3.216528828453867E-11    2.5687405857636823E-11   5.357817402210402E-12    1.7160248721858408E-10   8.323241670646627E-11    -2.097335926009886E-11
2.65E-5                   4.071226509364062E-10    3.799866390493767E-10    -2.0001284371893484E-10  -1.6699936539051994E-10  -2.0731666438609777E-10  2.5525426211917783E-11   3.01304301901536E-11     8.348544287889196E-12    2.214101751748509E-10    1.2304472230393983E-10   -1.4782190036423642E-12
2.7E-5                    5.174641098846578E-10    4.689645126157909E-10    -2.551935418995451E-10   -2.0245653711486636E-10  -2.43853658680591E-10    1.5812946961799775E-11   2.9697816473180266E-11   1.2715035257763598E-11   2.7082247914276764E-10   1.676444708208082E-10    2.3728223079912717E-11
2.7499999999999998E-5     6.291388439199942E-10    5.594126459302424E-10    -3.1433205270287854E-10  -2.350550855080093E-10   -2.822558541949875E-10   4.2765678127822885E-12   2.350383968669428E-11    1.829711930350283E-11    3.1649180910640103E-10   2.185749937565691E-10    5.6159348778835216E-11
2.8E-5                    7.396685883125782E-10    6.49586869676998E-10     -3.763003992953431E-10   -2.6368354873898793E-10  -3.1817641829955634E-10  -8.16527047698569E-12    1.2504179523557016E-11   2.4183298308660292E-11   3.5844699128252784E-10   2.7647921267550815E-10   9.685300069348645E-11
2.8499999999999998E-5     8.489917054253861E-10    7.391933398483846E-10    -4.3801417141943127E-10  -2.8915966590137093E-10  -3.465324221486216E-10   -2.3169102339921728E-11  -1.3833575435464411E-12  2.8708722811173568E-11   3.987219720720117E-10    3.3943506593043525E-10   1.4535952926207967E-10
2.9E-5                    9.556473780620984E-10    8.273332724586771E-10    -4.943993600725095E-10   -3.1150831552005955E-10  -3.6456840966768796E-10  -4.441066305272657E-11   -1.619372516931294E-11   2.981851762977338E-11    4.380994851372517E-10    4.032746908067103E-10    2.0014902179465874E-10
2.95E-5                   1.0543453579984274E-9    9.088135262553794E-10    -5.396588435513357E-10   -3.2920513009479615E-10  -3.721660330437199E-10   -7.345365530728281E-11   -3.026539383739586E-11   2.577143158567953E-11    4.729280130604875E-10    4.6354622931960623E-10   2.5988425380688E-10
2.9999999999999997E-5     1.1364454918943847E-9    9.734499323462425E-10    -5.697308661560005E-10   -3.4090870546159623E-10  -3.691045629416974E-10   -1.068911691334952E-10   -4.254250349624349E-11   1.6001817149764325E-11   4.946674639520332E-10    5.169283119240456E-10    3.238791669609549E-10
3.05E-5                   1.1909287721648812E-9    1.0096285719760422E-9    -5.840474116859592E-10   -3.460926988831011E-10   -3.522635188496685E-10   -1.3931623418465463E-10  -5.325485347561292E-11   1.6823613590402845E-12   4.931828059417924E-10    5.607692674325113E-10    3.9125374514633983E-10
3.1E-5                    1.2047574418541442E-9    1.0081807120819396E-9    -5.840040769273766E-10   -3.4278277889416685E-10  -3.159593244209102E-10   -1.6932789952484306E-10  -6.430339090697469E-11   -1.4558569726009358E-11  4.6140724970339616E-10   5.917185405838063E-10    4.6006006807274565E-10
3.15E-5                   1.1641960705517566E-9    9.625073393025947E-10    -5.683258253824264E-10   -3.2526347715181177E-10  -2.5488713697202845E-10  -2.0092268872582055E-10  -7.849798727669197E-11   -2.986752436239901E-11   3.9747101908587156E-10   6.04990826404573E-10     5.273051059021209E-10
3.2E-5                    1.0572905613409408E-9    8.656011903614121E-10    -5.29414871267599E-10    -2.8491909333975497E-10  -1.6584823054493514E-10  -2.377822896325558E-10   -9.799998327111525E-11   -4.271665005340642E-11   3.0257150122078735E-10   5.945777278182109E-10    5.891304928181679E-10
3.25E-5                   8.753060749467172E-10    7.081255780889975E-10    -4.5480687503152436E-10  -2.1343299428875812E-10  -4.646040448849122E-11   -2.771536703894803E-10   -1.2314245369347867E-10  -5.3820620126867286E-11  1.7674701236110964E-10   5.539758030608343E-10    6.403783498548512E-10
3.2999999999999996E-5     6.122253565948834E-10    4.802562101332242E-10    -3.3317911158158323E-10  -1.0558411719859663E-10  1.061357169500781E-10    -3.109978377229503E-10   -1.5216825477123564E-10  -6.586235125796377E-11   1.6718465754565377E-11   4.770706517579335E-10    6.744109066045872E-10
3.35E-5                   2.639416295388328E-10    1.7572603294796644E-10   -1.5990963030424491E-10  3.9330842950466683E-11   2.933459463670167E-10    -3.3324257818154506E-10  -1.815917829494318E-10   -8.22017772421272E-11    -1.8210817763446429E-10  3.5868740171066387E-10   6.843620335565064E-10
3.4E-5                    -1.7167387835960513E-10  -2.05800946613238E-10    6.214887904083915E-11    2.1690676775018458E-10   5.11837303016807E-10     -3.446692156467842E-10   -2.0704023625768757E-10  -1.0524306027391465E-10  -4.2176746833149666E-10  1.9452017242403363E-10   6.650131258155057E-10
3.45E-5                   -6.944185534865409E-10   -6.599822754809544E-10   3.2612558094536063E-10   4.181218762987654E-10    7.533971946511453E-10    -3.5005200437060193E-10  -2.2465946571952597E-10  -1.352095814895721E-10   -6.999732106371856E-10   -1.8880372295061572E-11  6.130495666442023E-10
3.5E-5                    -1.3015046298518654E-9   -1.1807423046814823E-9   6.245453333478012E-10    6.317750723169915E-10    1.0084609342389704E-9    -3.509784871847595E-10   -2.3244687252862982E-10  -1.698454824498737E-10   -1.0112704096507397E-9   -2.8326868454949033E-10  5.249721204768672E-10
3.5499999999999996E-5     -1.98679795890228E-9     -1.7614500511245142E-9   9.497061642522355E-10    8.483541031616198E-10    1.2691086315990564E-9    -3.417547843029625E-10   -2.3032160658150135E-10  -2.0515696035969868E-10  -1.348226966917125E-9    -5.97557822125136E-10    3.948035771056404E-10
3.6E-5                    -2.739362138264761E-9    -2.3932198008833975E-9   1.2923853415514246E-9    1.0628506060608666E-9    1.528264035524693E-9     -3.1185654218184995E-10  -2.1879408090012812E-10  -2.3680761747458846E-10  -1.7006818120518163E-9   -9.574958107995383E-10   2.143871364173666E-10
3.65E-5                   -3.5419212167686807E-9   -3.0622901196504023E-9   1.6422186821496551E-9    1.2737153710210445E-9    1.7763825783230056E-9    -2.5222398098500066E-10  -1.9758421121744845E-10  -2.613930701962057E-10   -2.0546899164923097E-9   -1.3561160009938712E-9   -2.35013867527587E-11
3.7E-5                    -4.3698591258503075E-9   -3.748646132561289E-9    1.990229373930408E-9     1.4776962093357186E-9    1.9992210746846353E-9    -1.6020486104630638E-10  -1.6523379980711986E-10  -2.7686532688465643E-10  -2.3934602443668655E-9   -1.7840594655767516E-9   -3.21966648899171E-10
3.75E-5                   -5.191516027210915E-9    -4.426190820926731E-9    2.330074894068427E-9     1.6645988961868873E-9    2.1787535846703337E-9    -3.986523966848359E-11   -1.1922269522725442E-10  -2.8196454628412046E-10  -2.6994929574720605E-9   -2.2295351903282427E-9   -6.793508325948476E-10
3.7999999999999995E-5     -5.970511353743584E-9    -5.0639133434324155E-9   2.65499565158521E-9      1.8174867825667289E-9    2.2964568996977073E-9    1.0190828509575551E-10   -5.5978978657062837E-11  -2.752332823455352E-10   -2.955210708120359E-9    -2.6782567358357484E-9   -1.0907057723529564E-9
3.85E-5                   -6.668941512084681E-9    -5.627778505591803E-9    2.9520602964379447E-9    1.9189261204273424E-9    2.33647040391935E-9      2.603284076657306E-10    2.8408742231001084E-11   -2.543949975057965E-10   -3.1415744594873477E-9   -3.113266186908213E-9    -1.5487978338133803E-9
3.9E-5                    -7.24836027250125E-9     -6.0825672935870085E-9   3.1987198049063997E-9    1.9571230301111383E-9    2.2866063704671953E-9    4.3515079067272955E-10   1.3594715473177976E-10   -2.1642566157983915E-10  -3.2372370777065645E-9   -3.514413758075132E-9    -2.0433748499442927E-9
3.95E-5                   -7.667442743211858E-9    -6.392394529883697E-9    3.365193767393177E-9     1.9260870334567714E-9    2.1373685017835945E-9    6.292135970253134E-10    2.6437648719282476E-10   -1.5808012245468466E-10  -3.2202170506988007E-9   -3.857931377734118E-9    -2.5600330004813116E-9
3.9999999999999996E-5     -7.879681750880853E-9    -6.520187356042854E-9    3.4216498335095933E-9    1.8214172807384074E-9    1.8807552660576202E-9    8.445111440171464E-10    4.072894893730641E-10    -7.649156521300273E-11   -3.070643257414432E-9    -4.116818628697851E-9    -3.0803128907910216E-9
4.0499999999999995E-5     -7.834931993177893E-9    -6.428325676416976E-9    3.3456463799922182E-9    1.6376928652676016E-9    1.510007643390891E-9     1.0787998704675577E-9    5.570658029085998E-10    3.0344730499943534E-11   -2.771821527759458E-9    -4.262161648102691E-9    -3.5828150318805474E-9
4.1E-5                    -7.48402509265975E-9     -6.081456402377441E-9    3.1251430674176046E-9    1.3694083419651904E-9    1.0200157628099901E-9    1.324894064486503E-9     7.079603136493095E-10    1.632346483464684E-10    -2.3096025880402252E-9   -4.264941820540663E-9    -4.044175224466215E-9
4.15E-5                   -6.782843682264294E-9    -5.449488032165309E-9    2.7554407938304353E-9    1.0124733342977166E-9    4.0797285191074696E-10   1.5723850299619195E-9    8.568354836468028E-10    3.2156626537172454E-10   -1.6726171808635331E-9   -4.097885476179298E-9    -4.439478096499591E-9
4.2E-5                    -5.694937179508415E-9    -4.5086317488063595E-9   2.2330302198503393E-9    5.648889900668405E-10    -3.254958026014056E-10   1.809682000207618E-9     1.0016756559719879E-9    5.031163812936306E-10    -8.544796899338844E-10   -3.737080324717223E-9    -4.742233539977044E-9
4.2499999999999996E-5     -4.194668569957435E-9    -3.2414664654490245E-9   1.5522713235369424E-9    2.8589511097210424E-11   -1.1746647498088582E-9   2.0246181603203555E-9    1.139576379132443E-9     7.038451499454528E-10    1.43953786024057E-10     -3.16317765544879E-9     -4.923873261384429E-9
4.2999999999999995E-5     -2.27107787802121E-9     -1.6387439594240785E-9   7.088658529622935E-10    -5.87732725007717E-10    -2.126873597301087E-9    2.2037601077609215E-9    1.2653425819725249E-9    9.178720052248908E-10    1.3139487954586796E-9    -2.362151798257033E-9    -4.953228484689691E-9
4.35E-5                   7.00173319953382E-11     2.964441945425321E-10    -2.9223192028571687E-10  -1.2688131896817098E-9   -3.160639941755462E-9    2.3318537032236506E-9    1.3710524402406296E-9    1.1378835684470687E-9    2.6387790947623014E-9    -1.325877936323742E-9    -4.7973890172203095E-9
4.4E-5                    2.806406489478364E-9     2.5445817423423648E-9    -1.4318668497830479E-9   -1.9971031583869325E-9   -4.2439483917614506E-9   2.392383186902753E-9     1.446739834613911E-9     1.355848847546081E-9     4.092472268681668E-9     -5.3016893150858794E-11  -4.4246909280086E-9
4.45E-5                   5.899683540191924E-9     5.068505821373177E-9     -2.6799905077539846E-9   -2.7556258612887835E-9   -5.3341179878394974E-9   2.3690421256468074E-9    1.4817129845943967E-9    1.5634930193853708E-9    5.638090487371778E-9     1.4494760820871789E-9    -3.8084856058560824E-9
4.4999999999999996E-5     9.293215423923635E-9     7.815234746416684E-9     -4.0042082424927495E-9   -3.5245011926293165E-9   -6.380773340004688E-9    2.2475122204896866E-9    1.4651990459100799E-9    1.752049686326456E-9     7.227345181782791E-9     3.1644530757181838E-9    -2.929653123990646E-9
4.5499999999999995E-5     1.2909244744951847E-8    1.0718362969384435E-8    -5.37453730364199E-9     -4.274890115426209E-9    -7.331023006718122E-9    2.017221019591921E-9     1.3857116445930747E-9    1.9113139951198554E-9    8.801669617276521E-9     5.062833572142014E-9     -1.7775769989371013E-9
4.6E-5                    1.664754388644085E-8     1.3698661290414143E-8    -6.7589349069423675E-9   -4.968626248226169E-9    -8.133623048603034E-9    1.6726213430044732E-9    1.2306135600307332E-9    2.0285123010076416E-9    1.0293741142854292E-8    7.102317479185285E-9     -3.5089670905332785E-10
4.65E-5                   2.038654383428787E-8     1.6663318518054053E-8    -8.114204490688654E-9    -5.565298585903115E-9    -8.740016286974608E-9    1.2131120918376787E-9    9.8799408086078E-10      2.087753187855777E-9     1.1629770773432656E-8    9.2266731790811E-9       1.3413483769364778E-9
4.7E-5                    2.398698091868768E-8     1.9506332578322087E-8    -9.382358201937923E-9    -6.029872546289681E-9    -9.103555640686767E-9    6.41320340780576E-10     6.507182053715567E-10    2.0707127108923112E-9    1.2733697396176622E-8    1.1366051479057764E-8    3.279017354430634E-9
4.7499999999999996E-5     2.7297662153556034E-8    2.2111263498743187E-8    -1.049727220547905E-8    -6.334511561253924E-9    -9.179850632601268E-9    -3.883768224439032E-11   2.198025524363476E-10    1.9585904298669823E-9    1.3532368441539425E-8    1.3438805878989318E-8    5.431069307776043E-9
4.8E-5                    3.016142335252494E-8     2.4354950738814694E-8    -1.139652372183277E-8    -6.456169674332888E-9    -8.92950132274322E-9     -8.221574610715334E-10   -2.9546233015151785E-10  1.7345855388480833E-9    1.395873434236925E-8     1.535453219430233E-8     7.755459619007284E-9
4.85E-5                   3.2419013951368224E-8    2.611090717475393E-8     -1.2029223951978822E-8   -6.3757708041245476E-9   -8.321919054768953E-9    -1.699740427473748E-9    -8.802088772539606E-10   1.3859941147969374E-9    1.3951777945613909E-8    1.7017515212168798E-8    1.0197363761288964E-8