% Model:              Untitled.mph
% Version:            COMSOL 6.0.0.405
% Date:               Jul 17 2025, 00:24
% Dimension:          1
% Nodes:              401
% Expressions:        11
% Description:        Point graph
% Time (s)                Displacement field, Y component Displacement field, Y component Displacement field, Y component Displacement field, Y component Displacement field, Y component Displacement field, Y component Displacement field, Y component Displacement field, Y component Displacement field, Y component Displacement field, Y component Displacement field, Y component
0                         7.793317648798047E-37    -2.9883954771345874E-36  -1.5041736326373205E-33  -1.5200387341432218E-33  -4.0174919519551624E-33  6.282622827886666E-35    3.903413858979792E-34    1.1338717252240103E-33   1.3720439349571267E-33   1.0836388595684269E-33   7.898104330504289E-32
5.0E-7                    -1.1288277346541769E-28  3.507806604483939E-28    1.9390523715660748E-25   2.075649373246568E-25    4.1112207527517344E-25   -9.019020481251079E-27   -5.317418134821772E-26   -1.606002466031396E-25   -1.9326437669103255E-25  -2.109943079311221E-25   -1.2106033493810714E-23
1.0E-6                    1.7229810783966515E-28   -5.152580232700156E-28   -3.6076290932460227E-25  -3.731823009946972E-25   -2.211626969556951E-24   1.0958348540225326E-26   2.0648053616169226E-26   1.7142038579653091E-25   2.265088254755101E-25    8.237505997257689E-25    9.626920628923369E-24
1.5E-6                    -3.5623136490980136E-28  -4.384381960604023E-29   -1.2223806548132339E-24  1.8707287154507267E-25   -3.7259721105057446E-24  -6.019960058538026E-28   2.4808983291282037E-25   1.9193031089714063E-25   -7.39720128516817E-26    -5.963693364650212E-25   8.1437778464681E-24
2.0E-6                    1.0321742933667354E-27   -8.396436326910783E-27   -1.0124141292376632E-24  -2.7693713688741614E-24  -4.462820069758573E-24   -3.85268962471858E-26    -1.1004045739342763E-24  -1.5159779871179275E-24  -3.8814793300934804E-25  8.196570392793103E-24    3.2495136201202925E-23
2.4999999999999998E-6     -1.975598920984596E-27   3.5684140850916867E-26   -2.3170307105782593E-23  -2.2636870967633726E-23  -1.466979525064227E-23   1.6985923109736066E-25   2.761819118292236E-24    5.136764310086402E-24    1.1736553615768812E-24   2.3958534732733488E-23   4.152133432363894E-22
3.0E-6                    -2.146777800422202E-27   3.9125342552460903E-26   -3.906937912342051E-23   -8.479878476297201E-23   -3.545730256570937E-23   -4.422964988271932E-25   -3.9239702536951896E-26  -4.4456507700124504E-24  6.260313801075406E-24    9.574282343852979E-24    -6.005699131092257E-23
3.5E-6                    1.0637266562559912E-26   -8.859668437952598E-26   1.1978932384251313E-22   -2.5806125289942124E-22  -1.8947527234935421E-22  3.3171012087223445E-26   -2.2407034240152266E-23  -1.4374858805997445E-23  1.1309046472735337E-23   1.3546986428847684E-22   -4.393344341749567E-22
4.0E-6                    -5.289394722642978E-26   -3.065129587263841E-25   -7.432594894317369E-23   -8.54756267075904E-22    1.0817065069929466E-21   3.537866167191139E-24    4.134917955820684E-23    8.516121860357807E-23    3.1585946095602836E-23   7.093300290614032E-22    6.81211124269605E-22
4.5E-6                    7.687704155266052E-26    -3.3618852924740093E-25  -1.5223058120450719E-21  -2.847086959083393E-21   -2.8806168706937335E-21  -4.2409805789054695E-25  1.1589507519347035E-22   3.2132071997927924E-23   2.6882193140923213E-22   7.239256315027435E-23    8.848716813293379E-21
4.9999999999999996E-6     -2.645616227977724E-26   5.219648347371208E-24    -2.0173546679165735E-21  -8.77293129270297E-21    -1.9154192281310517E-20  -1.9930710656139078E-23  -2.69856441263527E-22    -3.904453685101056E-22   6.617450202467232E-22    -4.456758031523411E-21   4.996080244047082E-20
5.5E-6                    -4.89710897902959E-25    6.57500413323366E-24     3.831709593831279E-21    -2.2659442972504914E-20  -3.1694300147906795E-20  -1.1658761335655137E-23  -4.821366346350634E-22   4.802716943559463E-22    1.4373502523362006E-21   5.067483746132323E-22    5.287236016533889E-20
6.0E-6                    1.5838618549568186E-24   -3.3064775529341625E-23  1.5605542999556362E-20   -5.22434602621017E-20    -3.8010451364235705E-20  9.45734237597227E-23     1.2286931500149978E-21   4.2116531998236206E-21   1.0351382089311312E-20   5.3487374057754996E-20   -2.281848547657541E-20
6.5E-6                    -2.03042682788008E-24    -3.749387013686874E-23   -1.1850050065795155E-21  -9.704762204587487E-20   8.725042265903053E-20    2.4982205101075955E-22   4.799868066140695E-21    1.078932069997344E-20    4.785281530389288E-20    1.9615353695412315E-19   4.1382247025417476E-19
7.0E-6                    -1.4100968690379035E-23  1.6414159321170293E-22   -1.231241204321145E-19   -6.738650376789179E-20   4.895505934797385E-19    5.295971525766199E-25    3.432998207316804E-21    1.4441507439847647E-20   1.3846602031853382E-19   5.180716468330202E-19    8.65406358129141E-19
7.499999999999999E-6      1.2620521072502112E-23   1.4305117221463201E-22   -3.898318900922346E-19   1.8434507776963114E-19   3.0798447228257825E-19   -1.0382489665635483E-21  -1.6053531968883755E-20  1.8117251648062894E-20   3.509479596240026E-19    1.371642278106408E-18    -1.6038146970468002E-18
8.0E-6                    3.733625150749501E-23    -9.424547613319458E-22   -1.055053073836925E-18   4.0452988926797726E-19   -1.4127054552547596E-18  1.979095174558748E-22    -9.87886041580438E-21    1.5858115511675576E-19   9.954055636094366E-19    3.934741641426161E-18    -2.904057618394353E-18
8.5E-6                    -1.6706649679783874E-22  -1.0585455274535629E-21  -3.4206137504827586E-18  -6.435582827816306E-19   -4.348113494686917E-18   1.2037045446154548E-20   1.718046565450208E-19    7.091468731645895E-19    3.113752806049782E-18    1.1344305186896725E-17   9.894125341541204E-18
9.0E-6                    -4.051546171926315E-22   4.039959910248181E-21    -9.502982779399459E-18   -6.627666635530499E-18   -1.3714743393329505E-17  3.546184273933815E-20    4.888814234633465E-19    1.793544148379339E-18    9.380066595164747E-18    3.006064509453626E-17    2.8058654810469384E-17
9.499999999999999E-6      4.2642339285588005E-22   6.435320729056082E-21    -2.1002786326013586E-17  -2.8424345163957974E-17  -4.692193289526472E-17   5.391713648542597E-20    5.245346370859117E-19    4.2590884770499464E-18   2.5245134934425655E-17   7.4002862977724E-17      3.09897013630101E-17
9.999999999999999E-6      1.991976544602918E-21    -1.3200631894809634E-20  -4.3795649139690205E-17  -8.816642724856702E-17   -1.2016422331320135E-16  1.086029320084472E-19    9.193841465370667E-19    1.2162157898454646E-17   6.20007525244735E-17     1.7682321225820883E-16   6.965949237918906E-17
1.05E-5                   -8.976771269169528E-22   -3.3011397816886026E-20  -9.541233608354255E-17   -2.1087097317730445E-16  -2.0220476250275447E-16  4.737163634177634E-19    5.209354608463326E-18    3.33301492542697E-17     1.4711156884649312E-16   4.02195156035227E-16     1.7819390509158343E-16
1.1E-5                    -9.92328835302292E-21    1.3510065545485114E-20   -2.10745449870835E-16    -4.0271912367280436E-16  -2.0142552167894338E-16  1.6801282430807004E-18   1.7146966299567646E-17   8.149651379565009E-17    3.4192670701366535E-16   8.464889809496903E-16    1.1888434563297975E-16
1.15E-5                   -3.985861282231422E-21   6.653031997253984E-20    -4.817013198829356E-16   -6.54542983936395E-16    -2.5494342688804794E-16  4.3962442861008505E-18   3.721220958797667E-17    1.9365741965204235E-16   7.624408246150367E-16    1.7102676478105664E-15   -2.1724003242400548E-16
1.2E-5                    4.145890302108333E-20    -1.2343030993390776E-19  -1.1348233602199119E-15  -1.1082545484608424E-15  -1.2160329186141379E-15  1.0355624430021665E-17   7.729549837390159E-17    4.55275530380494E-16     1.6345504152514086E-15   3.5257420773524984E-15   2.6466151161156017E-16
1.2499999999999999E-5     8.784627317106789E-20    -5.582405254549837E-19   -2.5007809473673497E-15  -2.5351667355680457E-15  -4.167460589906843E-15   2.5379579620603718E-17   1.928197509108449E-16    1.0219901894296741E-15   3.4626236919189826E-15   7.52473076407185E-15     3.273338148687998E-15
1.3E-5                    7.837787697213888E-20    -6.925382601369715E-19   -4.94866780029045E-15    -6.716975652336811E-15   -8.734970211135962E-15   6.354632186137443E-17    4.824267284933302E-16    2.2150631355681948E-15   7.393154269186504E-15    1.6464145169564132E-14   8.079186312415921E-15
1.35E-5                   1.7171807692973697E-19   -5.977751914039458E-19   -9.61143180739824E-15    -1.5602155879201532E-14  -1.322801451657589E-14   1.5396643124323701E-16   1.0589016940877948E-15   4.790599673201381E-15    1.5971651508727543E-14   3.6757272180419164E-14   1.1141134978909994E-14
1.4E-5                    8.260857817694128E-19    -2.9773163340269215E-18  -2.0516783859944435E-14  -2.9744520624235866E-14  -1.9040895640183587E-14  3.5691177253162183E-16   2.1874355225183133E-15   1.0366976098428092E-14   3.4757607870871254E-14   8.162027117146123E-14    1.2469006457000846E-14
1.45E-5                   2.530520479298069E-18    -1.2415671058652165E-17  -4.671463398097605E-14   -5.1510642102718314E-14  -3.7239138980104794E-14  7.93981363672287E-16     4.747200159668828E-15    2.2244325741884607E-14   7.499937569957943E-14    1.7300657501018007E-13   2.1638561338810688E-14
1.4999999999999999E-5     5.789589040192018E-18    -3.0401509319953654E-17  -1.0251682303509965E-13  -9.937439419063407E-14   -9.501903859868063E-14   1.71658183989296E-15     1.0652775960710102E-14   4.731993065391015E-14    1.5676261684820542E-13   3.430942585712752E-13    5.527220975641422E-14
1.55E-5                   1.1840032047148957E-17   -5.596074033024438E-17   -2.0777713920706964E-13  -2.240950164685521E-13   -2.3591822908922825E-13  3.7026287697498185E-15   2.283789410224553E-14    9.910374194014046E-14    3.13068035216783E-13     6.452758338454984E-13    1.3398168858965583E-13
1.6E-5                    2.396132498569712E-17    -1.0853238755841886E-16  -3.9328322818231185E-13  -4.955036321103495E-13   -4.941800565767624E-13   8.04877291558627E-15     4.6072563418723865E-14   2.0118394366813468E-13   6.004089937009847E-13    1.1904669309611396E-12   2.863623199827397E-13
1.6499999999999998E-5     5.0957795508464206E-17   -2.653224679288261E-16   -7.159493609910177E-13   -9.529288915465878E-13   -8.537066376813909E-13   1.7254468525351064E-14   9.137018371022704E-14    3.936673892007693E-13    1.124674793692959E-12    2.2133891360387406E-12   5.413630590769288E-13
1.7E-5                    1.1510839845767475E-16   -6.707395986315946E-16   -1.2924301673432995E-12  -1.6129955933342153E-12  -1.3048787580090976E-12  3.5706062805847027E-14   1.835126674048322E-13    7.481723505113486E-13    2.08425544119906E-12     4.130356651152379E-12    9.108816852428467E-13
1.75E-5                   2.6038393666181097E-16   -1.514989917859729E-15   -2.357522813272399E-12   -2.6714308232474552E-12  -2.1064962437691585E-12  7.16500092301706E-14     3.6487356583889013E-13   1.3903930876230454E-12   3.804294065459664E-12    7.481810242822262E-12    1.4530843853421326E-12
1.8E-5                    5.562311851150221E-16    -3.092182379963604E-15   -4.305654098519405E-12   -4.791347865856785E-12   -4.036836001772999E-12   1.418140035067931E-13    6.923937387196185E-13    2.51880624169912E-12     6.68962164544681E-12     1.2651942878558406E-11   2.4823042889074326E-12
1.85E-5                   1.1207289946589736E-15   -6.112676739557283E-15   -7.601855989322423E-12   -8.977352646137916E-12   -8.106786209694716E-12   2.777270344408306E-13    1.2447281422431831E-12   4.4017982331512186E-12   1.101343436223461E-11    1.9452408027239415E-11   4.718843132041372E-12
1.8999999999999998E-5     2.215428525329358E-15    -1.2459892734961047E-14  -1.249138790251143E-11   -1.5686820919089496E-11  -1.4629532195836535E-11  5.307888175707445E-13    2.162562932611939E-12    7.312729675163953E-12    1.6592867550590333E-11   2.694001387321318E-11    8.99408920372399E-12
1.95E-5                   4.415827812045296E-15    -2.644520443222413E-14   -1.865488748569286E-11   -2.3828858547824485E-11  -2.2535362739557776E-11  9.778746370012557E-13    3.689927038718868E-12    1.1343595836108695E-11   2.2651893698063074E-11   3.378693180834683E-11    1.5548756899146553E-11
1.9999999999999998E-5     8.768911813140875E-15    -5.567909441707062E-14   -2.5121139521686913E-11  -3.099538250356634E-11   -2.994367177029899E-11   1.7366333775320344E-12   6.1045199455579556E-12   1.6150506327342118E-11   2.8175274196053475E-11   3.895084875389065E-11    2.3653157899890942E-11
2.05E-5                   1.693195339818092E-14    -1.0978005724943325E-13  -3.0590550491380674E-11  -3.519548444409082E-11   -3.5558014808125326E-11  2.987450416398038E-12    9.476363787450462E-12    2.0917768704601397E-11   3.251861830447115E-11    4.190633458137483E-11    3.212036093252374E-11
2.1E-5                    3.1616628611049123E-14   -1.9901334957989036E-13  -3.396674138261968E-11   -3.6354255984807856E-11  -3.9201808012384504E-11  4.9578670940161356E-12   1.3437658279788199E-11   2.477842066607269E-11    3.5506970409474105E-11   4.2115897666808925E-11   4.011507834502456E-11
2.1499999999999997E-5     5.774492776443662E-14    -3.4437510148746415E-13  -3.473334213644886E-11   -3.570406055977275E-11   -4.0828097024811486E-11  7.807621565186387E-12    1.7293815438696706E-11   2.734733010959278E-11    3.6751801876733147E-11   3.847239967602858E-11    4.7098185449338917E-11
2.2E-5                    1.0401185991903547E-13   -6.084684752130529E-13   -3.2942042633784397E-11  -3.3678664079988034E-11  -3.948247333856392E-11   1.1439941817457766E-11   2.0485362676073727E-11   2.863310409616218E-11    3.5151755874015076E-11   2.971415571030779E-11    5.195126775100735E-11
2.2499999999999998E-5     1.838767662008526E-13    -1.1232874633994627E-12  -2.878600680323548E-11   -2.8893931865783433E-11  -3.3807135270218126E-11  1.541455773479843E-11    2.2877089025738622E-11   2.8326304177955575E-11   2.9593980537732055E-11   1.5580697190979606E-11   5.273890869256342E-11
2.3E-5                    3.16375248721767E-13     -2.0571354550424115E-12  -2.1984933067623378E-11  -1.9470202220757137E-11  -2.3433405620448197E-11  1.912553901142084E-11    2.4444129319137403E-11   2.5555269067019856E-11   2.0096156654756922E-11   -2.8077332305982837E-12  4.785515851799249E-11
2.35E-5                   5.298746870955189E-13    -3.506011465342304E-12   -1.1526783436097318E-11  -5.056577865734083E-12   -9.346837731750617E-12   2.2114986799933307E-11   2.4782891985793024E-11   1.974038513213365E-11    7.551476960941147E-12    -2.4164153508444132E-11  3.7208080858065317E-11
2.4E-5                    8.699177132224103E-13    -5.411548915476276E-12   3.733730718592946E-12    1.2765568983700378E-11   7.1628445600865814E-12   2.4148076365768768E-11   2.3270023316959026E-11   1.1376980130235743E-11   -7.9606152333431E-12     -4.854616021908774E-11   2.1788367810177625E-11
2.45E-5                   1.401479617320698E-12    -7.628987973861987E-12   2.3938022793030366E-11   3.1984625700354887E-11   2.5570326922238544E-11   2.4931918057967897E-11   1.9736914188770926E-11   1.2915971799236767E-12   -2.800418620989416E-11   -7.732129173127031E-11   2.1456683603048007E-12
2.4999999999999998E-5     2.187060344547457E-12    -1.0071252571868618E-11  4.776585749703739E-11    5.195621474977571E-11    4.6333555925649447E-11   2.3904233272052304E-11   1.4519153089207927E-11   -1.0874425302207353E-11  -5.443628377568198E-11   -1.1173467364841024E-10  -2.2217241517826317E-11
2.55E-5                   3.2357070371275E-12      -1.266721726218529E-11   7.349561849664938E-11    7.401427839972852E-11    7.0738155804886E-11      2.050691614119406E-11    7.523359606264676E-12    -2.6767607219737227E-11  -8.76650414082836E-11    -1.5183888431423495E-10  -5.197657027494258E-11
2.6E-5                    4.453530013622414E-12    -1.5072619179810776E-11  1.007305700079796E-10    1.0066018056476123E-10   1.0059301103567711E-10   1.461772592007134E-11    -2.370001899587268E-12   -4.773253999106088E-11   -1.2671122086378511E-10  -1.9654007431632346E-10  -8.72282313701333E-11
2.65E-5                   5.644366925202131E-12    -1.652294051712969E-11   1.3086443584722835E-10   1.340093656188839E-10    1.372683407629919E-10    6.422532339745254E-12    -1.6454024159865932E-11  -7.372588305445147E-11   -1.7038640066913375E-10  -2.439796242411128E-10   -1.2797999302863536E-10
2.7E-5                    6.574696664323265E-12    -1.621112406319515E-11   1.6551075308776652E-10   1.7445730000433058E-10   1.804393693778254E-10    -4.239710108357114E-12   -3.4930153278385626E-11  -1.0406186966537537E-10  -2.1748850665033523E-10  -2.9186164401118535E-10  -1.748410195248362E-10
2.7499999999999998E-5     7.0581570594297445E-12   -1.3883372996696557E-11  2.044013310769531E-10    2.2030851966781736E-10   2.2795158827656066E-10   -1.8151272964082388E-11  -5.705666742006469E-11   -1.3853233499613254E-10  -2.660423489653049E-10   -3.381106214523181E-10   -2.283996193899348E-10
2.8E-5                    7.00175154322789E-12     -9.892199314259924E-12   2.4493294382925296E-10   2.6840786468083914E-10   2.7703234377198056E-10   -3.614693669733797E-11   -8.250045414346834E-11   -1.7712939121911544E-10  -3.133569974036565E-10   -3.8138093667780586E-10  -2.87738966687145E-10
2.8499999999999998E-5     6.4001918643430334E-12   -4.580873545128143E-12   2.8372701549495E-10      3.1511309884712557E-10   3.2521909370515426E-10   -5.844215268121806E-11   -1.1186541846637898E-10  -2.1893352067379274E-10  -3.5713096893945795E-10  -4.203004598468279E-10   -3.4989948152198763E-10
2.9E-5                    5.296764324779699E-12    2.1722654748317275E-12   3.184513883320821E-10    3.570201144247046E-10    3.7004524748702485E-10   -8.46784892735579E-11    -1.4559923636448167E-10  -2.618655906826832E-10   -3.9591015390064145E-10  -4.5192406018539766E-10  -4.109244794422772E-10
2.95E-5                   3.710636654659461E-12    1.0649375891218056E-11   3.481348809780561E-10    3.914669304057756E-10    4.0863972056496073E-10   -1.1434483127559366E-10  -1.8285636452088294E-10  -3.03525987361281E-10    -4.281569844050045E-10   -4.71343640438061E-10    -4.672449559640545E-10
2.9999999999999997E-5     1.5310380410475642E-12   2.0819188864439004E-11   3.7195393909364747E-10   4.168829847969771E-10    4.3827501333231996E-10   -1.4674781865471227E-10  -2.2186779293789077E-10  -3.418760533325693E-10   -4.512099210683554E-10   -4.730308145761811E-10   -5.160501782549425E-10
3.05E-5                   -1.548485908069887E-12   3.2549919751814344E-11   3.8783221655645337E-10   4.3242584755106427E-10   4.5682980489550095E-10   -1.806523360720629E-10   -2.611539635104902E-10   -3.7499587177443616E-10  -4.6128011676947026E-10  -4.5230177766011915E-10  -5.546479167131262E-10
3.1E-5                    -5.9412921898223355E-12  4.6168648840303144E-11   3.920574772979396E-10    4.364922723803969E-10    4.6195399275348075E-10   -2.144025808035193E-10   -2.9981398499337E-10     -4.0041767348989885E-10  -4.5405365688613185E-10  -4.055692851372839E-10   -5.796785929141478E-10
3.15E-5                   -1.1931712707245148E-11  6.229328933542491E-11    3.800923556768016E-10    4.251519963557954E-10    4.499829334307049E-10    -2.465296990848205E-10   -3.365161938280482E-10   -4.148655736691336E-10   -4.250755747987883E-10   -3.2987552302476965E-10  -5.867722152019508E-10
3.2E-5                    -1.9484302399342788E-11  8.091311857095165E-11    3.4777903885613347E-10   3.9241790694774497E-10   4.164709175163803E-10    -2.759043449062175E-10   -3.6857340892443095E-10  -4.145734794840648E-10   -3.699270361754062E-10   -2.226884081913409E-10   -5.707309462288414E-10
3.25E-5                   -2.8274056096344742E-11  1.0091691149297419E-10   2.9187241985305314E-10   3.3270151009395614E-10   3.5795012268706335E-10   -3.010752307148817E-10   -3.9227289866033594E-10  -3.957045407051587E-10   -2.845335864060545E-10   -8.206214149175064E-11   -5.261502030701128E-10
3.2999999999999996E-5     -3.786581322482474E-11   1.2068605047543452E-10   2.096879058611953E-10    2.4328285920500543E-10   2.726567541497756E-10    -3.197190036646334E-10   -4.0392694451174316E-10  -3.544939395757044E-10   -1.655691513374103E-10   9.31279492418627E-11     -4.482407187996519E-10
3.35E-5                   -4.7817566378117486E-11  1.389177807632233E-10    9.891927572755735E-11    1.2442048340464657E-10   1.5942596832141208E-10   -3.2907171544381695E-10  -4.0026697146709503E-10  -2.8735118500483053E-10  -1.0856076233928341E-11  3.0286305593783364E-10   -3.3338165373173786E-10
3.4E-5                    -5.7647589416550676E-11  1.547536319879742E-10    -4.144850646593951E-11   -2.2685938154917305E-11  1.64825599364629E-11     -3.2681341388578476E-10  -3.778567846707366E-10   -1.913163264556873E-10   1.8016221575701447E-10   5.455705467738734E-10    -1.790930731807431E-10
3.45E-5                   -6.683358498025347E-11   1.674178912086063E-10    -2.1007340432476474E-10  -1.9765047700970608E-10  -1.5820128983748206E-10  -3.1120644474223066E-10  -3.326196653359691E-10   -6.464240049194903E-11   4.060728352462807E-10    8.178635385928006E-10    1.625887515958695E-11
3.5E-5                    -7.493437880734918E-11   1.7598626466538162E-10   -4.0391493140374886E-10  -4.006319817278338E-10   -3.6547196905330504E-10  -2.8034438377547173E-10  -2.604531786296801E-10   9.310264817906555E-11    6.637252523614577E-10    1.1144606927853045E-9    2.533592525637952E-10
3.5499999999999996E-5     -8.16704836021993E-11    1.7931713331576863E-10   -6.203469230993196E-10   -6.306687434920207E-10   -6.039852795431393E-10   -2.3159922529789332E-10  -1.5849804163886586E-10  2.814290249411354E-10    9.488769094712405E-10    1.4280161156717327E-9    5.312435692864219E-10
3.6E-5                    -8.682187520352195E-11   1.76002520733591E-10     -8.577263066709708E-10   -8.843926759831306E-10   -8.700126364107786E-10   -1.6201613794913664E-10  -2.5791890735016227E-11  4.991778741907517E-10    1.2562624196633592E-9    1.7488231263997746E-9    8.465526283266207E-10
3.65E-5                   -9.009614653693908E-11   1.646052961276006E-10    -1.1125612093667735E-9   -1.1559460450575258E-9   -1.1573098389966706E-9   -6.912488119869273E-11   1.3729136888407269E-10   7.442663655761977E-10    1.5785407942497204E-9    2.0646702260118583E-9    1.1933955791684934E-9
3.7E-5                    -9.115837856767982E-11   1.4422090173297693E-10   -1.3759091631425237E-9   -1.4374460494611162E-9   -1.4566744582496469E-9   4.868853075473699E-11    3.301216558954776E-10    1.0131390387319697E-9    1.904989351335369E-9     2.360907573294161E-9     1.5637655453146256E-9
3.75E-5                   -8.965055816718995E-11   1.1465058107266064E-10   -1.6335324979875897E-9   -1.7190202504425993E-9   -1.7558300308849404E-9   1.9223013139145433E-10   5.52153751865965E-10     1.300176877106421E-9     2.221250615564972E-9     2.6205583527104423E-9    1.947749516461111E-9
3.7999999999999995E-5     -8.489462132718966E-11   7.571928058556504E-11    -1.870359612220966E-9    -1.9883343730983466E-9   -2.0403550742129834E-9   3.613892005433912E-10    8.01944473615315E-10     1.5971834562085759E-9    2.5102947744709538E-9    2.8246725109885993E-9    2.3329467631953854E-9
3.85E-5                   -7.54776994672962E-11    2.6484660043229063E-11   -2.0745876256674442E-9   -2.2304406906931815E-9   -2.2953584119036594E-9   5.547420572601956E-10    1.0755674506819395E-9    1.893212616303262E-9     2.7537107722129897E-9    2.953339593880733E-9     2.7035161404489754E-9
3.9E-5                    -5.937634659097066E-11   -3.4652108481669145E-11  -2.237086016941487E-9    -2.4286527044459824E-9   -2.5066858856580353E-9   7.691951034467803E-10    1.3658068760291557E-9    2.17491297999574E-9      2.9326827496124525E-9    2.9871198572844592E-9    3.0400062337168005E-9
3.95E-5                   -3.4817223360511757E-11  -1.0914642515709203E-10  -2.3473254670088457E-9   -2.566207463933045E-9    -2.6607825717948984E-9   9.997946993644056E-10    1.662727976836652E-9     2.4270737232822266E-9    3.028602082677387E-9     2.908047488967246E-9     3.3205369466515796E-9
3.9999999999999996E-5     -1.121359511629147E-12   -1.978187686221318E-10   -2.390840352177987E-9    -2.6278087175968314E-9   -2.743752163761213E-9    1.2396201574348356E-9    1.954808211202866E-9     2.6329968495561172E-9    3.023285706537771E-9     2.6999439878750883E-9    3.522539790068819E-9
4.0499999999999995E-5     4.133606075093429E-11    -3.008100147856766E-10   -2.3509090066850224E-9   -2.600381175021828E-9    -2.7410810101062732E-9   1.4798688031469115E-9    2.2294415537076235E-9    2.7749012286524098E-9    2.898918120983317E-9     2.348782522519212E-9     3.6238987369840722E-9
4.1E-5                    9.190586390778407E-11    -4.171625753305093E-10   -2.2123428485603508E-9   -2.47303395270912E-9     -2.6386912101288478E-9   1.7102593822604263E-9    2.4726355320002377E-9    2.8347606693896045E-9    2.638445662264343E-9     1.8437903947333425E-9    3.603460293430797E-9
4.15E-5                   1.501865222342124E-10    -5.438568686319982E-10   -1.9639161492696644E-9   -2.236592277743206E-9    -2.4243883450608794E-9   1.9195072557067415E-9    2.668669859808793E-9     2.7953684835462386E-9    2.227021805882755E-9     1.179064471418316E-9     3.441746818258576E-9
4.2E-5                    2.1568555432488032E-10   -6.7543101878672E-10     -1.5984793047671563E-9   -1.883083980303815E-9    -2.0885229796089795E-9   2.095533963262642E-9     2.8002967650449067E-9    2.641006282194208E-9     1.6539516915331776E-9    3.549876704492808E-10    3.122004300406777E-9
4.2499999999999996E-5     2.870839848982369E-10    -8.051309096165992E-10   -1.1121196221552814E-9   -1.405687308024367E-9    -1.6240936385648743E-9   2.225474415865612E-9     2.849383117178028E-9     2.3576091638436065E-9    9.141573846997419E-10    -6.209958272722767E-10   2.6308378307610802E-9
4.2999999999999995E-5     3.6195262522486955E-10   -9.268669044636461E-10   -5.037730275509576E-10   -7.997912897584956E-10   -1.0274341564354055E-9   2.2957837165625477E-9    2.79774712725268E-9      1.9330691097852736E-9    9.155526801692101E-12    -1.7342247705008657E-9   1.958402700279341E-9
4.35E-5                   4.3715599746498345E-10   -1.0362005719969609E-9   2.2409637386437916E-10   -6.534426862180951E-11   -2.99662618406255E-10    2.2925835020592163E-9    2.6281915563673744E-9    1.3583022726407168E-9    -1.0519200776678035E-9   -2.9629128461527368E-9   1.099331518689074E-9
4.4E-5                    5.09445034959175E-10     -1.1294545394062363E-9   1.0636698729470433E-9    7.905171909572204E-10    5.522314152396114E-10    2.2022907838307193E-9    2.3257101376875186E-9    6.289490752822116E-10    -2.2515433951864116E-9   -4.2780421539657906E-9   5.499834499105797E-11
4.45E-5                   5.756600202812438E-10    -1.2018276176773012E-9   1.9996619767932377E-9    1.7522777696721381E-9    1.5153731451601587E-9    2.012605005912462E-9     1.878588751161797E-9     -2.5305452829474756E-10  -3.5639841622234895E-9   -5.643046325301787E-9    -1.1641090933696535E-9
4.4999999999999996E-5     6.324483782959038E-10    -1.2462617882607718E-9   3.0087157616065167E-9    2.797078980177494E-9     2.5713317430017085E-9    1.713702597509743E-9     1.2791571437417253E-9    -1.278633692726254E-9    -4.9561152875085365E-9   -7.01381272419446E-9     -2.5374806943203773E-9
4.5499999999999995E-5     6.758955124630934E-10    -1.2540582059656143E-9   4.061234990955353E-9     3.8969059842212725E-9    3.6958639958890345E-9    1.2991796461700782E-9    5.243097894154046E-10    -2.4313589978505164E-9   -6.387738259101379E-9    -8.33937940313239E-9     -4.035069822141899E-9
4.6E-5                    7.015553867341273E-10    -1.2167038657372118E-9   5.124169667381065E-9     5.02009488591161E-9      4.8584440037161615E-9    7.664377966972592E-10    -3.8386157682234423E-10  -3.6874125644676894E-9   -7.811316487736508E-9    -9.563101484689759E-9    -5.6179917676820685E-9
4.65E-5                   7.04970096972927E-10     -1.1274271508574548E-9   6.162199709336645E-9     6.1314186045851695E-9    6.022673340494321E-9     1.166769424370038E-10    -1.4371700134196513E-9   -5.015645049764508E-9    -9.17222114565966E-9     -1.0624095872142162E-8   -7.239088899607668E-9
4.7E-5                    6.822117916284848E-10    -9.814246757585808E-10   7.1365701397089616E-9    7.191526606213765E-9     7.147741196566226E-9     -6.451469510701738E-10   -2.6203732046790236E-9   -6.377969104263844E-9    -1.0410170612924161E-8   -1.1459370799486484E-8   -8.844083783641542E-9
4.7499999999999996E-5     6.298863642655889E-10    -7.750427576442909E-10   8.003503301204968E-9     8.156978504036385E-9     8.190040555381093E-9     -1.510139750603678E-9    -3.910461601470494E-9    -7.730039925678492E-9    -1.1461328416854314E-8   -1.2006939395962859E-8   -1.037354392685772E-8
4.8E-5                    5.446722066532654E-10    -5.051613045630701E-10   8.71481685835477E-9      8.981581232826745E-9     9.104406012895043E-9     -2.464893867644627E-9    -5.2763178087946785E-9   -9.021824469850754E-9    -1.2260407674671089E-8   -1.220927634572868E-8    -1.1764742276661657E-8
4.85E-5                   4.231740772188959E-10    -1.697243418029951E-10   9.221575085992972E-9     9.618929323984888E-9     9.845435700683082E-9     -3.4905632675389146E-9   -6.678771354521865E-9    -1.0198045552392799E-8   -1.2742984683845838E-8   -1.2016178355692048E-8   -1.295263743656488E-8