% Model:              Untitled.mph
% Version:            COMSOL 6.0.0.405
% Date:               Jul 15 2025, 12:59
% Dimension:          1
% Nodes:              401
% Expressions:        11
% Description:        Point graph
% Time (s)                Displacement field, Y component Displacement field, Y component Displacement field, Y component Displacement field, Y component Displacement field, Y component Displacement field, Y component Displacement field, Y component Displacement field, Y component Displacement field, Y component Displacement field, Y component Displacement field, Y component
0                         3.031964570620678E-33    -1.0506432292769427E-31  -2.3956131841860114E-31  -5.001457813604192E-32   -6.852074097971121E-34   4.637918690611486E-34    1.9543183223899674E-32   5.648774243987773E-31    1.2356041985924115E-31   -7.573697582835758E-34   9.778618881450332E-34
5.0E-7                    -3.9489440924719846E-25  1.1590802835963899E-23   4.367387067862448E-23    6.272131063377222E-24    -1.562912237116868E-26   1.8826086688539783E-25   -2.8237652464823525E-24  -1.0103468383061365E-22  -1.8679022572944334E-23  1.8041984468058817E-26   2.535301062625614E-25
1.0E-6                    5.216562638418746E-26    7.256892940457252E-24    -9.005878329651855E-23   -9.142640289023542E-25   1.4749656952901202E-24   1.6251485053354588E-24   1.5864013559556164E-24   1.8781727824549793E-23   2.0821882710435907E-23   7.941544448842919E-25    -1.5622276997793988E-24
1.5E-6                    2.961951398207774E-25    -6.308687838023883E-23   -1.356903449485013E-22   -9.975784762709343E-23   -5.059258840543728E-24   -1.3307620423829413E-23  6.780188137714403E-24    1.8392684776458906E-21   5.763321567065121E-23    8.462211388196346E-24    2.0994187436554923E-24
2.0E-6                    5.20488799198619E-24     5.570183497350067E-22    1.9263986028714195E-21   6.4535392485097315E-22   -2.7246261260493873E-24  6.41036665698307E-26     -4.960783685122115E-23   -8.032018976317169E-21   -4.165372478451127E-22   -4.544696284514094E-23   -4.98855869343185E-25
2.4999999999999998E-6     -9.195617934819357E-23   -3.0837044594666372E-21  -8.763551163597974E-21   -1.7684114598840572E-21  1.7112122614072702E-23   1.0496642005712268E-22   2.524769587900034E-22    1.2628030267555596E-20   1.0850773561645742E-21   -4.3634438894800434E-23  2.06524725943994E-23
3.0E-6                    2.8076414406642826E-22   5.9425957438868794E-21   2.280358825563856E-20    1.3809732310666033E-22   7.749096388085658E-23    -1.1124670335739027E-22  -3.9040279887130115E-22  -2.6162249343499837E-21  -1.7250546851174596E-21  4.503125296716883E-22    -5.2049482369827115E-23
3.5E-6                    4.326403249089346E-22    2.8303203928854794E-21   -3.437665843425418E-21   5.469515354348982E-21    -1.075897608321797E-22   -3.0992475380697633E-22  -6.636682913996289E-23   2.4937890598861386E-20   2.8847807491670504E-21   5.963157560996451E-22    -1.9220098950326004E-22
4.0E-6                    -2.6374023770567084E-21  -2.736352294186585E-20   -1.1722743570458894E-19  -1.4064144193289379E-22  -6.85336277538082E-22    4.261100391339437E-22    5.432607889866857E-22    -4.5307985170254856E-20  -6.121031354809035E-21   -2.236122462004171E-21   1.769819748109388E-22
4.5E-6                    2.6134478560974073E-22   9.761335463164196E-21    1.1747780470086132E-19   -1.539824752313212E-20   8.529372475092044E-22    1.0132419986120365E-21   -8.748367607528667E-22   -5.331387910643483E-19   -2.754290937235371E-21   -5.362829865247306E-21   1.6215792942354842E-21
4.9999999999999996E-6     1.516090485023874E-20    9.075234902509171E-20    6.031852362882553E-20    -6.321324173680335E-20   5.242638285079353E-21    3.3753162256223415E-22   3.1813574153801497E-21   9.91961588894096E-19     7.884021932133778E-20    6.372276449798881E-21    2.5607800478101476E-21
5.5E-6                    -2.6721820796488815E-20  6.85327376064669E-20     -8.18892474114649E-20    2.1133007678551037E-20   -4.8444616864320196E-21  -8.01381819277129E-21    -2.0287108479906046E-21  3.0547447766828566E-18   -1.0103203799847688E-19  4.204723443934864E-20    -5.2877367679966615E-21
6.0E-6                    -1.179392117903659E-19   -7.556856204239238E-19   1.6341598372516008E-18   2.9112889249176693E-19   -3.7129136277021E-20     -1.630775067349008E-20   -2.0407656648601872E-20  -4.564966224206782E-18   -2.422328471344216E-19   4.8543072162694675E-20   -3.1494267675770637E-20
6.5E-6                    1.979642866246375E-19    -1.0965867043541803E-18  -1.0512764070284709E-18  -1.1711489583996645E-19  1.292661650712777E-20    3.833357492928132E-20    4.3001718680907196E-20   -1.2976576379478659E-17  7.258722039081022E-19    -1.3385385708167803E-19  -4.041222270873995E-20
7.0E-6                    7.996806414110112E-19    4.6783375411024505E-18   -1.0948686663619883E-17  -1.2505614201744278E-18  2.2300255664138807E-19   9.779452280488958E-20    2.986295118351223E-19    9.750436785816854E-18    5.867306424302148E-19    -4.569734639935783E-19   1.2329442726455407E-19
7.499999999999999E-6      -1.0144116509124933E-18  6.979015710635153E-18    -1.6219419183669694E-18  -1.0459985541948445E-18  7.463018020475894E-20    -1.3958444025163936E-19  1.8667912713369006E-19   5.0980815730075995E-17   -2.7249552976844215E-18  1.6737385049394798E-19   5.240908038823803E-19
8.0E-6                    -5.504208045516048E-18   -2.0064365108423366E-17  3.4532754204904105E-17   -4.923081509189395E-19   -1.0694836985475898E-18  -3.5351175335319024E-19  -1.3307296446729564E-18  2.086063946020795E-17    1.270410929534447E-18    2.941732361747644E-18    2.948197443571598E-19
8.5E-6                    -3.8731670518223196E-19  -3.7903167454234777E-17  2.2918090706288625E-17   -4.673537058428086E-18   -1.3042449843391013E-18  6.314723000257814E-19    -2.537748465102134E-19   -1.2995575987713067E-16  2.068316812885495E-17    4.589576598082378E-18    -2.242177653086511E-18
9.0E-6                    1.9745444415622067E-17   3.879554377557855E-17    -1.0800297360843938E-16  -9.624771977928346E-18   3.0894370476721256E-18   1.0646265732360034E-18   1.2593124781849105E-17   -1.5411188876122626E-16  1.6917808547003785E-17   -2.0435323469125706E-18  -5.123254928884604E-18
9.499999999999999E-6      3.422105166537936E-18    9.523846902018036E-17    -2.4332814995394195E-16  -3.68901288405749E-18    7.280131953472234E-18    -4.5456838043615084E-18  2.5004792307226362E-17   3.730997459456676E-16    -4.97319985320328E-17    -1.115790606069712E-17   1.8050350351992905E-18
9.999999999999999E-6      -1.1062465462559118E-16  -1.3178961374647738E-16  -6.443989838491861E-17   -1.1317809592891982E-17  -5.877004213562465E-18   -9.178596806226648E-18   3.895242100560134E-18    9.363623359585923E-16    -3.1725906138361055E-17  9.795353067397355E-18    2.3543880786558985E-17
1.05E-5                   -2.0707375159297574E-16  -4.798783441683086E-16   3.412924541386636E-16    -9.449573393654372E-17   -3.5419008298436695E-17  1.535251745414733E-17    8.781134046348628E-18    6.35556289357196E-18     3.407844744078088E-16    9.039522977314487E-17    2.840043953549548E-17
1.1E-5                    -9.113888856081257E-17   -4.737769277213473E-16   -4.0813829172128555E-16  -1.9743350543999989E-16  -3.1900020684120744E-17  5.646036177895777E-17    2.4174646345747137E-16   -1.336916332713798E-15   8.047984865769642E-16    1.9584333904368972E-16   -3.8603339233084426E-17
1.15E-5                   -1.8788071923723996E-16  -5.146772253734783E-16   -3.597007170180915E-15   -1.16463644803159E-16    3.1504208540733124E-17   -8.830230628083255E-18   7.784148254370074E-16    1.5932300516995815E-15   4.764191234657436E-16    2.5547624840340415E-16   -1.3991865213201314E-16
1.2E-5                    -1.7958180526223508E-15  -1.899463769015484E-15   -6.855551010896902E-15   -8.255415280627454E-17   9.533840135232157E-18    -2.455110460354982E-16   1.4747957510603107E-15   8.080862870176138E-15    -2.2045759297633608E-16  4.2354675342807315E-16   -6.724079359809452E-17
1.2499999999999999E-5     -5.731517173577498E-15   -5.193680015973769E-15   -6.684553771171571E-15   -1.1373692578019193E-15  -3.6107958963997726E-16  -3.3313108284834116E-16  2.7826923732205048E-15   9.701125889653408E-15    1.800057208080449E-15    1.375790144451147E-15    3.183052198849997E-16
1.3E-5                    -1.1701330006879342E-14  -1.1278243555869984E-14  -9.145744325002939E-15   -3.6044752283776656E-15  -1.0713666724592852E-15  1.5686359061332505E-16   6.6101907864765876E-15   1.1316685597099234E-14   8.636523318412835E-15    4.027298994466601E-15    6.517759257203563E-16
1.35E-5                   -2.2430583866088332E-14  -2.6246167412251806E-14  -3.062376130201571E-14   -5.93063885231092E-15    -1.7712799006401846E-15  6.99175267602147E-16     1.6023488625572467E-14   3.560964213996801E-14    1.7291321988355694E-14   8.94475972622596E-15     2.1605484788629041E-16
1.4E-5                    -5.014430385207039E-14   -6.16642261165046E-14    -8.300999835947149E-14   -9.68108288912533E-15    -2.864110637904631E-15   -2.802998114807016E-16   3.5386720905378846E-14   8.066345330814589E-14    2.613314570009913E-14    1.7542903931677752E-14   -9.295287135670235E-16
1.45E-5                   -1.178618687734426E-13   -1.270451379235489E-13   -1.7817031103035846E-13  -2.587397435341629E-14   -6.803737761975056E-15   -3.4040601365344835E-15  7.227475516314997E-14    1.2737339705336913E-13   4.757313991876305E-14    3.550088847470048E-14    -1.0873739868470825E-15
1.4999999999999999E-5     -2.577387347290873E-13   -2.3771022121603223E-13  -3.5934078129153665E-13  -6.538586694612805E-14   -1.7271942667417425E-14  -7.341993271536495E-15   1.3894006746376346E-13   2.574179969936322E-13    1.0820903496852743E-13   7.410133700171996E-14    1.8922768512750665E-15
1.55E-5                   -5.211981529436313E-13   -4.608688056258414E-13   -6.918409429574099E-13   -1.2177177335429144E-13  -3.7486842751865645E-14  -1.1822147756989636E-14  2.5734145463607306E-13   6.526532217817927E-13    2.3946758954411744E-13   1.4877959750840855E-13   7.955323006361808E-15
1.6E-5                    -1.0097364628156125E-12  -9.505201125272107E-13   -1.2192471689033853E-12  -1.9761453853385997E-13  -7.336760004032996E-14   -2.0305710269753757E-14  4.809689398962102E-13    1.3216208985024778E-12   4.833215187553941E-13    2.8531122814314085E-13   1.4075189945342303E-14
1.6499999999999998E-5     -1.920961823478857E-12   -1.877742641400651E-12   -2.0731342527012137E-12  -3.765311245571544E-13   -1.4136497588578133E-13  -3.8038109013626115E-14  9.29562319663133E-13     2.0606292154589973E-12   9.110961191306253E-13    5.356630974872445E-13    1.8029487404504494E-14
1.7E-5                    -3.5904521292319933E-12  -3.325361026529291E-12   -3.782680193361939E-12   -8.132388356905082E-13   -2.705576456690153E-13   -7.400312591729506E-14   1.808090235475829E-12    3.144477210407106E-12    1.6475644922025136E-12   9.796952770705087E-13    2.5478805578542888E-14
1.75E-5                   -6.468503444075096E-12   -5.4218997996847275E-12  -7.31331026343289E-12    -1.5686909082054477E-12  -4.987938753169465E-13   -1.5262289643275364E-13  3.4024528095520942E-12   5.857354633017159E-12    2.9506305433546493E-12   1.7073497932781826E-12   5.5082747516928934E-14
1.8E-5                    -1.0933877640244475E-11  -8.707761049742522E-12   -1.3313711598297568E-11  -2.549890210135764E-12   -8.84158472079197E-13    -3.135012144096325E-13   6.0629255833245496E-12   1.1424915902202099E-11   5.3335371801836985E-12   2.834604007844377E-12    1.34452678050926E-13
1.85E-5                   -1.695058265392836E-11   -1.4052922537709387E-11  -2.10439007872638E-11    -3.8810073104269665E-12  -1.5336057414629487E-12  -5.830700393159436E-13   1.0116029705114843E-11   1.9144986833407945E-11   9.463715127620179E-12    4.563786394616406E-12    2.8499528712244244E-13
1.8999999999999998E-5     -2.3811995064162443E-11  -2.1610684212657693E-11  -2.8381813683784704E-11  -6.349680919327386E-12   -2.5975691643012812E-12  -9.680062734677225E-13   1.562827662410715E-11    2.6530239902999464E-11   1.5600764877941793E-11   7.138162813145011E-12    5.118879852660702E-13
1.95E-5                   -3.0278285830112047E-11  -2.9796983947099273E-11  -3.3435918952348005E-11  -1.0966878150008202E-11  -4.194316288681894E-12   -1.5330912249578037E-12  2.21796066812105E-11     3.188115800159093E-11    2.2970833677090544E-11   1.0563654356223749E-11   8.307431725135224E-13
1.9999999999999998E-5     -3.509112416823949E-11   -3.605159479846281E-11   -3.6118372962763235E-11  -1.754940832839516E-11   -6.326685787062644E-12   -2.48544821837352E-12    2.8994771015078562E-11   3.5696061471963244E-11   2.9903909303850344E-11   1.4329160030283653E-11   1.3339000465133384E-12
2.05E-5                   -3.747507784969199E-11   -3.908151795730706E-11   -3.7521568397822134E-11  -2.393912820303827E-11   -8.87469697592765E-12    -4.060671444987912E-12   3.542190951585638E-11    3.856629429419003E-11    3.4790818847438476E-11   1.7556358524445982E-11   2.2226289682196244E-12
2.1E-5                    -3.727889603213906E-11   -3.970195141410732E-11   -3.757841502249392E-11   -2.731344316350649E-11   -1.1624386222872372E-11  -6.179022707100143E-12   4.118856865252059E-11    3.872346801723832E-11    3.6776411834809115E-11   1.9545186963138082E-11   3.701371724517928E-12
2.1499999999999997E-5     -3.478455823835668E-11   -3.878598906483618E-11   -3.4163380364608756E-11  -2.6431098225119136E-11  -1.4242035354840958E-11  -8.219463885031321E-12   4.607313678616456E-11    3.33667632712791E-11     3.5455332216315427E-11   2.0074006040440667E-11   5.753641483237121E-12
2.2E-5                    -3.043180941016485E-11   -3.519890551087642E-11   -2.5263017053353733E-11  -2.213191969061742E-11   -1.624967018365076E-11   -9.32083147676097E-12    4.9469012719254606E-11   2.2114434082496754E-11   3.037135906713634E-11    1.9065425061653733E-11   8.015673175666844E-12
2.2499999999999998E-5     -2.4586683453220517E-11  -2.7104200434862758E-11  -1.1449758647933428E-11  -1.5666206841087192E-11  -1.7133609319684374E-11  -9.093028289598316E-12   5.0460201104062635E-11   7.443460496142094E-12    2.1355076811262823E-11   1.6149984073459727E-11   9.95849136751209E-12
2.3E-5                    -1.7266733652259475E-11  -1.477580930172827E-11   4.981828904112366E-12    -7.420688556892961E-12   -1.6533155405583685E-11  -8.040025863408347E-12   4.81962147710178E-11     -8.543710940527989E-12   9.122381320111507E-12    1.088448728790446E-11    1.126613741808136E-11
2.35E-5                   -7.72325958324277E-12    -7.0113011141990356E-15  2.316477961688809E-11    2.3030258080154756E-12   -1.4334575232966621E-11  -7.160613148737771E-12   4.1935066967600636E-11   -2.6409529336632358E-11  -5.206227348584718E-12   3.4334218681104854E-12   1.1995938989454674E-11
2.4E-5                    5.919388200631237E-12    1.768990640272833E-11    4.450761933802945E-11    1.2260932086442484E-11   -1.0678371719899062E-11  -7.059954935037695E-12   3.0732693006764506E-11   -4.8043817929414665E-11  -2.142508084309976E-11   -5.284233615881407E-12   1.2287084707819336E-11
2.45E-5                   2.6429630261981573E-11   4.1955378861113316E-11   7.009733655524152E-11    2.125616936642516E-11    -5.971046942442529E-12   -7.461522140147233E-12   1.3265011132360183E-11   -7.430725100052718E-11   -4.070179110389928E-11   -1.4399778807664447E-11  1.1941097171111604E-11
2.4999999999999998E-5     5.630289309941283E-11    7.496628493380594E-11    9.893393055131898E-11    3.010128167424083E-11    -7.135753724283865E-13   -7.535756169397644E-12   -1.196960476786493E-11   -1.0467177515311168E-10  -6.453948118668698E-11   -2.3998565687510258E-11  1.0431334927108553E-11
2.55E-5                   9.617673422584971E-11    1.1360242548708725E-10   1.2993005497729588E-10   4.171309780013636E-11    5.0481955308883644E-12   -6.545289099529612E-12   -4.609216770930623E-11   -1.3813420383127386E-10  -9.354050899029245E-11   -3.5044916408230897E-11  7.40848006657351E-12
2.6E-5                    1.440289589738879E-10    1.5270556235939084E-10   1.643242081556849E-10    5.895113106922892E-11    1.2167316631127493E-11   -4.0722421238871234E-12  -8.912077130445217E-11   -1.734894422228928E-10   -1.272138297888736E-10   -4.844703003155766E-11   3.102163481540471E-12
2.65E-5                   1.9604578889196592E-10   1.9157967495546038E-10   2.0407651258923413E-10   8.257870984978141E-11    2.1912465096996946E-11   2.9041603698544703E-13   -1.3981987048348397E-10  -2.0923483825802705E-10  -1.645008585911667E-10   -6.444093008018688E-11   -1.956228296064124E-12
2.7E-5                    2.488118411920957E-10    2.3454842018446735E-10   2.480995201613677E-10    1.1098519256530923E-10   3.477361913310388E-11    7.280442767283529E-12    -1.9684092732539092E-10  -2.441190071320494E-10   -2.0409301918473234E-10  -8.29440011202119E-11    -7.696767336665717E-12
2.7499999999999998E-5     3.011979320900952E-10    2.8445367259025916E-10   2.920365687959356E-10    1.4103620109153755E-10   5.002500966828004E-11    1.7825358698259067E-11   -2.6024815476563415E-10  -2.776755045288634E-10   -2.443609706619134E-10   -1.0409949836669944E-10  -1.4939791093420293E-11
2.8E-5                    3.5419988611385156E-10   3.378257789166088E-10    3.3235050909279446E-10   1.691149635508247E-10    6.685593161607921E-11    3.2355261549494546E-11   -3.3128848217267596E-10  -3.0967466028472105E-10  -2.8324331777520996E-10  -1.2792916030817686E-10  -2.494613451228835E-11
2.8499999999999998E-5     4.0868062481700477E-10   3.878206614883508E-10    3.6897997390397214E-10   1.9234357731322463E-10   8.572570500659076E-11    5.007432990604195E-11    -4.100880000042052E-10   -3.3901998226477326E-10  -3.1822489194838726E-10  -1.5336308959802167E-10  -3.8465902334460564E-11
2.9E-5                    4.6313097603971276E-10   4.302353310099703E-10    4.0260992502355634E-10   2.096128661012007E-10    1.079638294639793E-10    6.90086049118741E-11     -4.938648298834277E-10   -3.6315915013601595E-10  -3.46376170991311E-10    -1.7802859513378442E-10  -5.52136487413154E-11
2.95E-5                   5.134707045479675E-10    4.645291327771593E-10    4.301859207320693E-10    2.2123168795543698E-10   1.3381565744378835E-10   8.715391701799646E-11    -5.777349015147984E-10   -3.7808435874522324E-10  -3.645619012788011E-10   -1.9934925154254195E-10  -7.423177747215404E-11
2.9999999999999997E-5     5.544108744771715E-10    4.895805568079514E-10    4.447524742680117E-10    2.271656005590753E-10    1.613398978344652E-10    1.0382380986637015E-10   -6.566832879346952E-10   -3.7885930856519195E-10  -3.698440896814931E-10   -2.1578217023379867E-10  -9.46344925077308E-11
3.05E-5                   5.804598074740137E-10    5.009120770777762E-10    4.398181127000308E-10    2.2589436109732768E-10   1.8761806438708084E-10   1.197442934041074E-10    -7.260012000438091E-10   -3.6103966875731923E-10  -3.597696347112752E-10   -2.2680446212781446E-10  -1.1589474742839607E-10
3.1E-5                    5.861106900654164E-10    4.928843548450152E-10    4.1277029285733734E-10   2.1541343420413317E-10   2.107614781467008E-10    1.3568280777574767E-10   -7.801761594474462E-10   -3.2217976500385384E-10  -3.321703911890932E-10   -2.3184449607554734E-10  -1.3750088943827646E-10
3.15E-5                   5.661978536171054E-10    4.616858475590862E-10    3.6373328946881384E-10   1.9492223858070346E-10   2.302528170257898E-10    1.5113058269276147E-10   -8.124979213068157E-10   -2.6147499155792786E-10  -2.845517447958136E-10   -2.2954603204217477E-10  -1.5853886977697045E-10
3.2E-5                    5.16422242016908E-10     4.042927497947252E-10    2.921522540815841E-10    1.64563797597852E-10     2.454884188353322E-10    1.6440899822212602E-10   -8.162070542395789E-10   -1.776829776010361E-10   -2.1374006577817692E-10  -2.1807305558509487E-10  -1.776310149155637E-10
3.25E-5                   4.3301332022600926E-10   3.1546543430439516E-10   1.953466431366088E-10    1.233155734235571E-10    2.546705443124827E-10    1.736927852592922E-10    -7.854884345041857E-10   -6.837920478624415E-11   -1.164813255666652E-10   -1.957996755065797E-10   -1.9306776342348077E-10
3.2999999999999996E-5     3.118975128583147E-10    1.8854777043486066E-10   6.993322782799537E-11    6.807985158379538E-11    2.553527557021942E-10    1.7749696001937628E-10   -7.148832748561755E-10   6.791484800372894E-11    9.218284764326087E-12    -1.6154254707812214E-10  -2.0287095914927434E-10
3.35E-5                   1.4918088247573179E-10   2.0420974231192696E-11   -8.627856171922616E-11   -4.266949256315378E-12   2.454769434568058E-10    1.7428812515356985E-10   -5.980860837108236E-10   2.2956757278260538E-10   1.6316740255572238E-10   -1.143773311726761E-10   -2.0489723809122192E-10
3.4E-5                    -5.684555353640116E-11   -1.8561204296384522E-10  -2.7371258151788505E-10  -9.417821682034063E-11   2.2333888693024674E-10   1.6211803641114755E-10   -4.2799884246624895E-10  4.12750676505759E-10     3.432419520023932E-10    -5.354376368112155E-11   -1.9710569929104183E-10
3.45E-5                   -3.0457098858966727E-10  -4.2292364727210206E-10  -4.910398782518774E-10   -1.995015843043472E-10   1.8695058670002093E-10   1.388839685705062E-10    -1.982307609539992E-10   6.139785402275516E-10    5.461277562589079E-10    2.1484994289998977E-11   -1.7773382705382713E-10
3.5E-5                    -5.905960277486284E-10   -6.864941745604864E-10   -7.346322545016767E-10   -3.1793234869612723E-10  1.343819360546567E-10    1.0292576478770084E-10   9.548156291070661E-11    8.305363420479067E-10    7.674015560469958E-10    1.1104258753730803E-10   -1.4516657330151447E-10
3.5499999999999996E-5     -9.121884528907938E-10   -9.733577456750675E-10   -9.982372643381126E-10   -4.480237093223014E-10   6.499332188721143E-11    5.348889226288852E-11    4.5490143891710545E-10   1.0584235837448404E-9    1.0010124219331553E-9    2.1534309704457462E-10   -9.78081742449254E-11
3.6E-5                    -1.2671290909967709E-9   -1.278639186180677E-9    -1.2742014637895287E-9   -5.869785947608046E-10   -2.040205325141618E-11   -9.194369431854591E-12   8.791794522577038E-10    1.2908846174050981E-9    1.2391501776308166E-9    3.3415208831290546E-10   -3.430600229959048E-11
3.65E-5                   -1.6502460005093273E-9   -1.5927543667791404E-9   -1.5551539975940635E-9   -7.283680061419198E-10   -1.2131276989465255E-10  -8.432208384298025E-11   1.3639540115819413E-9    1.5190748699401847E-9    1.4726557838422024E-9    4.660381593711092E-10    4.6166509840341064E-11
3.7E-5                    -2.0503298178102493E-9   -1.9029292570313002E-9   -1.8335463539074778E-9   -8.635001597203244E-10   -2.3931799210083816E-10  -1.7112246395406059E-10  1.90019948818328E-9      1.733049430556868E-9     1.6910558944972092E-9    6.078963491045579E-10    1.4402118187209178E-10
3.75E-5                   -2.451226128413912E-9    -2.196466704699601E-9    -2.0990780623261706E-9   -9.851908790760932E-10   -3.7731971331639687E-10  -2.688449627806139E-10   2.474247588134623E-9     1.9213796750665208E-9    1.881918425764605E-9     7.552764167820027E-10    2.594364105251794E-10
3.7999999999999995E-5     -2.8357697946269697E-9   -2.4618933978302154E-9   -2.3372832673837993E-9   -1.0891170257640975E-9   -5.365719092523584E-10   -3.759459025017815E-10   3.069006318313226E-9     2.070432806134576E-9     2.0305832469801977E-9    9.030455740746754E-10    3.919253427555399E-10
3.85E-5                   -3.187407460864769E-9    -2.68739998707582E-9     -2.531252464009935E-9    -1.1709442236753956E-9   -7.142192682899022E-10   -4.895260131524798E-10   3.6646468773399624E-9    2.165085050670268E-9     2.1211669544439582E-9    1.0455122349622373E-9    5.395324428356659E-10
3.9E-5                    -3.48754447264217E-9     -2.8585889119852906E-9   -2.6644726697031055E-9   -1.222952383708437E-9    -9.033446223463903E-10   -6.059774889008472E-10   4.2377010841813895E-9    2.190634028575466E-9     2.1382048277091602E-9    1.1760523731946233E-9    6.98633872690202E-10
3.95E-5                   -3.7127366259861592E-9   -2.957303910199723E-9    -2.721963339901999E-9    -1.2345456739207604E-9   -1.0949668969041114E-9   -7.221039326659068E-10   4.759938352354064E-9     2.134315052341694E-9     2.0676643268607515E-9    1.287146393492449E-9     8.644240701386209E-10
3.9999999999999996E-5     -3.836114107252756E-9    -2.962373561308757E-9    -2.6897477809260103E-9   -1.1962373256215675E-9   -1.2800737095613892E-9   -8.351232455964976E-10   5.1990798312022624E-9    1.985750382046922E-9     1.897202395308066E-9     1.3711320069062302E-9    1.0310356237379309E-9
4.0499999999999995E-5     -3.831712048874796E-9    -2.8525948879609895E-9   -2.5545828849089386E-9   -1.1027908713790362E-9   -1.450376317896142E-9    -9.413476894842391E-10   5.521123129530658E-9     1.7369421669708823E-9    1.6166447547045732E-9    1.4208477181989342E-9    1.1909229503714268E-9
4.1E-5                    -3.6772672821236435E-9   -2.6109470739194224E-9   -2.3048869155789908E-9   -9.526760435294643E-10   -1.5977496896744429E-9   -1.035050782110925E-9    5.691957254580389E-9     1.3824552401321507E-9    1.21912204183685E-9      1.4295259521516764E-9    1.3346137974378767E-9
4.15E-5                   -3.3543457951146663E-9   -2.2272782827521196E-9   -1.9322742519018455E-9   -7.453130911591837E-10   -1.713219944100362E-9    -1.108759475001501E-9    5.677185091292531E-9     9.199868922547699E-10    7.020963911115881E-10    1.3904545795689136E-9    1.4515928026061992E-9
4.2E-5                    -2.848320195314712E-9    -1.6974582062389846E-9   -1.432634268230062E-9    -4.793856856130967E-10   -1.7865798603254574E-9   -1.1545026234376437E-9   5.441969775206757E-9     3.5134060315439597E-10   6.760543909791369E-11    1.297180114647132E-9     1.531341016883916E-9
4.2499999999999996E-5     -2.149478956179706E-9    -1.0205626586672626E-9   -8.060077895806868E-10   -1.535465272235848E-10   -1.807126096828795E-9    -1.1646949481870612E-9   4.953065860949715E-9     -3.1658427026215546E-10  -6.777353084729278E-10   1.1441624018028141E-9    1.5633491265239526E-9
4.2999999999999995E-5     -1.253749094729976E-9    -1.9782440920083242E-10  -5.5622893769989055E-11  2.3150525813110471E-10   -1.7649851711557422E-9   -1.1321568188862584E-9   4.182497435896657E-9     -1.0716102518983436E-9   -1.5220493603852794E-9   9.273495237115289E-10    1.5366742620723407E-9
4.35E-5                   -1.6215848720108073E-10  7.651526836833756E-10    8.121917655343428E-10    6.708127459692828E-10    -1.6520192546204024E-9   -1.0499150393109644E-9   3.1105220672477472E-9    -1.897084772362222E-9    -2.4469379345815813E-9   6.445794770756017E-10    1.4404258502314816E-9
4.4E-5                    1.119211691343823E-9     1.855154219843199E-9     1.7860260345875447E-9    1.1534791320803872E-9    -1.4618576551769864E-9   -9.114931863475168E-10   1.7269192643907951E-9    -2.772642520450274E-9    -3.42659825636472E-9     2.9596644708363456E-10   1.265112045181356E-9
4.45E-5                   2.576960637234693E-9     3.0498971487252997E-9    2.846946544455939E-9     1.6625169022869948E-9    -1.1894229066964896E-9   -7.116458859572698E-10   3.1823798508760416E-11   -3.6741080666356357E-9   -4.427912825789038E-9    -1.1583102262583346E-10  1.003442001132981E-9
4.4999999999999996E-5     4.186705683629735E-9     4.318601648625211E-9     3.968671082216903E-9     2.17718027207018E-9      -8.304947067855971E-10   -4.471204680683643E-10   -1.9627525836972376E-9   -4.573203707294086E-9    -5.411381882544152E-9    -5.855713032773293E-10   6.50048474969291E-10
4.5499999999999995E-5     5.910856026564571E-9     5.623050557209821E-9     5.120723601234425E-9     2.6767426901808144E-9    -3.8159462490603244E-10  -1.1731266138947604E-10  -4.231159516869158E-9    -5.438075006925725E-9    -6.332613107733348E-9    -1.1054527279378515E-9   2.0125010654998114E-10
4.6E-5                    7.699642065555534E-9     6.918448850027792E-9     6.271128213161934E-9     3.1427293327435857E-9    1.594889209432977E-10    2.751948078433688E-10    -6.733060664809363E-9    -6.234367878929134E-9    -7.144114233897573E-9    -1.66515954627712E-9     -3.4401080821965733E-10
4.65E-5                   9.494628568718735E-9     8.154804690665629E-9     7.385771507183056E-9     3.5577744277188798E-9    7.921290869906887E-10    7.244829627071891E-10    -9.413113625953254E-9    -6.926045304333426E-9    -7.796979989015638E-9    -2.252196898229979E-9    -9.824054501115169E-10
4.7E-5                    1.1232172413634102E-8    9.279225432003584E-9     8.42617677321635E-9      3.9027324915358365E-9    1.5105712177883136E-9    1.2216620838330061E-9    -1.2200755394584486E-8   -7.476233430880575E-9    -8.242216812782826E-9    -2.852455616802799E-9    -1.7049317140380643E-9
4.7499999999999996E-5     1.2844709992047855E-8    1.02382646745273E-8      9.34971266782219E-9      4.155447135013812E-9     2.302364564223865E-9     1.7552518222138103E-9    -1.501002920900358E-8    -7.84898390010028E-9     -8.432100011211175E-9    -3.4503929010897362E-9   -2.4968145508065884E-9
4.8E-5                    1.4260141980421554E-8    1.0979502305316991E-8    1.011289527438562E-8     4.292774399748589E-9     3.1486989093271337E-9    2.3110991222735483E-9    -1.7740235115230006E-8   -8.01171689385976E-9     -8.322338233254707E-9    -4.028537510364312E-9    -3.338091123964357E-9
4.85E-5                   1.5401877740306748E-8    1.1452856654975865E-8    1.0674307382301427E-8    4.294298721396892E-9     4.025994992644814E-9     2.872242999647755E-9     -2.0278217259405366E-8   -7.937178376333895E-9    -7.875330806796717E-9    -4.566970485279512E-9    -4.203928618296614E-9