% Model:              Untitled.mph
% Version:            COMSOL 6.0.0.405
% Date:               Jul 15 2025, 12:59
% Dimension:          1
% Nodes:              401
% Expressions:        11
% Description:        Point graph
% Time (s)                Displacement field, Y component Displacement field, Y component Displacement field, Y component Displacement field, Y component Displacement field, Y component Displacement field, Y component Displacement field, Y component Displacement field, Y component Displacement field, Y component Displacement field, Y component Displacement field, Y component
0                         -5.9431889611528464E-36  5.192509725343059E-34    2.119713880936388E-33    3.6278750463315845E-33   4.351474185568696E-33    5.936550585110698E-32    -6.031362770999255E-36   -8.098284650557969E-33   -3.0505276457120694E-33  -3.6033644183791E-33     -1.8240902525504935E-31
5.0E-7                    1.0255789116188771E-27   -1.821274356117524E-26   -1.5647871327551997E-25  -2.2376606720821785E-24  5.808987117568008E-26    2.7414568100508795E-24   7.782748499283822E-28    8.31859634536282E-25     4.283094551436131E-25    -6.4921560050406E-25     1.2155674310942319E-23
1.0E-6                    -4.355712963735799E-27   -6.366188629716644E-25   -1.6644233911749723E-24  4.3049068432867366E-24   3.192663140720084E-23    3.219533300744928E-23    1.8901476581971704E-28   4.572211871363527E-24    -6.449878954605971E-25   -1.4501722700414214E-23  1.1431143850542915E-22
1.5E-6                    2.709438187311017E-26    3.708665149920848E-24    1.1711772551347257E-23   5.723923858546285E-23    1.5356298064188088E-24   -1.0387306012384269E-22  -8.296095221778595E-27   -4.227943400507855E-23   7.672109106610256E-25    -1.669067868948969E-23   -4.3940128217204695E-22
2.0E-6                    -9.464731017051658E-26   -8.455384342885565E-24   -3.280023582779773E-23   -2.504749525683002E-22   -6.3559016220599655E-22  -3.0242919055939905E-21  3.1246838060270023E-26   1.492920645106052E-22    -4.206826382892872E-25   2.960225849998262E-22    6.399169425116652E-22
2.4999999999999998E-6     6.6309518634404E-26      -8.258270434274333E-25   2.2608054611673386E-23   -3.1892426340323224E-23  -3.093211363810235E-22   -1.7617575210572055E-21  -4.403209054932002E-26   -2.315685113306301E-22   -2.6341388638317433E-24  1.96443419144886E-22     -1.3159708258560685E-21
3.0E-6                    6.244761217842219E-25    4.050916812784206E-23    8.135942169177483E-23    1.0140176312069304E-21   9.912535273394625E-22    2.8509414287374527E-20   -6.51772153060196E-27    -4.501119478506348E-23   5.566612546176867E-23    -3.0623991950193644E-21  5.927657827788697E-21
3.5E-6                    -1.6125900205538406E-24  -2.1122932933876187E-23  -7.802863097557958E-23   3.7712598637209395E-22   4.195849143124281E-21    1.8659226099828393E-20   -2.4503749521812326E-26  9.85016252529109E-22     -2.707095876131943E-22   -3.710747379810788E-21   -1.6258831075156874E-20
4.0E-6                    -2.0505067991230915E-24  -2.1611096946400983E-22  -3.456391081291469E-22   -3.984551464121367E-21   2.8690899523691396E-20   -1.1313764347292973E-19  2.97701094919129E-25     -1.9588167522168578E-21  2.7190357088685786E-22   1.9796155589192892E-20   -1.4835565740672723E-20
4.5E-6                    1.0918386060587422E-23   1.9356451039835353E-22   1.6628672434885226E-22   -6.250276889778833E-21   2.5072744600593956E-21   -4.6721875226663623E-20  3.0565380020521206E-25   -1.7374250639104464E-21  1.321251287898819E-21    3.401807846942923E-20    1.6706929833947848E-19
4.9999999999999996E-6     7.377114049973581E-24    1.139527249949171E-21    2.086027424944113E-21    1.8249149367283614E-20   -2.7619938242559906E-19  2.7994637468170516E-19   -2.718444711089414E-24   9.733867655813088E-21    -2.914031803877686E-21   -9.508279199387588E-20   -4.6999489899928515E-20
5.5E-6                    -5.340405197510226E-23   -1.2469365858966021E-21  -1.6148667202214685E-21  2.6793926686131658E-20   -2.3812933035153816E-19  3.410495181486956E-20    -1.2584752552042935E-25  9.568421883712284E-21    -4.910242606494046E-21   -2.4339278109310503E-19  -1.0758884388670892E-18
6.0E-6                    -3.5157356487211283E-23  -4.98934846041222E-21    -6.555695044484501E-21   -4.653467978274651E-20   1.5644324469278666E-18   -1.1186179240227817E-18  1.1743308809683968E-23   -3.909087446089615E-20   1.2152844994800361E-20   1.509666708351181E-19    4.23807192978789E-21
6.5E-6                    2.3372989824660733E-22   5.358734594405042E-21    9.767172933274783E-21    2.700901316476044E-20    2.6304871695422983E-18   -1.8110571461345892E-18  5.4919748522570065E-24   -8.75999365239951E-20    2.1814872322167094E-20   6.637218125694496E-19    5.9823184605193386E-18
7.0E-6                    2.8011315635069215E-22   2.1142944858188085E-20   1.115744993852652E-20    1.703741473519439E-19    -4.830803495152597E-18   4.381385327034416E-18    -3.2481444084660834E-23  1.035423285218267E-19    -4.1954336145478693E-20  -7.919296997202963E-19   2.1156312495261275E-18
7.499999999999999E-6      -7.347624453008374E-22   -1.4376936168682673E-20  -2.5764944870197403E-20  2.461490945470166E-19    -1.4721310705650822E-17  1.7635292921705456E-17   -8.432987992814622E-23   4.416139959025275E-19    -1.4718443556756943E-19  -4.524663783208017E-18   -3.3624617123994225E-17
8.0E-6                    -1.5335634389124954E-21  -8.459557517064112E-20   4.3645180843047734E-20   3.2808072385863963E-18   6.777817057462727E-18    -4.6785086631051364E-18  -5.474038408597988E-24   -2.1457296103106709E-19  -8.500146939246187E-20   -8.735438585709797E-18   -3.841419347004087E-17
8.5E-6                    2.0354029502945888E-21   2.1000189619528937E-20   1.1581193357397032E-19   9.703897394349543E-18    6.723558499314708E-17    -6.834192614711797E-17   6.203707818421966E-22    -1.9041272290665008E-18  8.80771661004833E-20     -1.5003364979930496E-17  1.1117296398246086E-16
9.0E-6                    8.367144810573078E-21    3.3712719546627496E-19   -2.6119292525215467E-19  9.932628833631791E-18    6.642020219158968E-17    4.8492169554808965E-17   8.632487264927669E-22    -9.44962076118761E-19    -6.671491274574992E-19   -2.5746950920631516E-17  1.8608700051231246E-16
9.499999999999999E-6      1.066197930970639E-21    1.2266045051180225E-19   -3.2209616644842224E-19  2.5268446898637636E-17   -1.1302447407121355E-16  4.553551281867943E-16    -2.9607644972457486E-21  3.1795535552604918E-18   -3.604382729904671E-18   -6.947963309132132E-17   -4.46617633520144E-16
9.999999999999999E-6      -2.5205465488431737E-20  -1.1049090903748543E-18  1.6249226000231671E-18   1.4072886861461624E-16   -2.5470974873632736E-16  4.1033041780953805E-16   -7.209761711567322E-21   2.537880921173605E-19    -8.5720105121415E-18     -3.0065806274514927E-16  -1.3707104950208362E-15
1.05E-5                   -1.605018999862964E-20   -1.0007576038987384E-18  3.6013882006163705E-18   3.9092274096384544E-16   3.3062865696145467E-16   -5.031103270741964E-16   8.638115341297969E-21    -1.4739270236749205E-17  -1.880144554679543E-17   -9.837564193221114E-16   -3.924978848285253E-16
1.1E-5                    8.830372554757727E-20    3.3211847627552324E-18   7.203077637479341E-19    7.635399832820837E-16    1.875359935504722E-15    4.680261606509267E-16    3.628856820469119E-20    -2.895052898226009E-17   -5.2928908134693625E-17  -2.223552829741524E-15   2.133067805138873E-15
1.15E-5                   1.7623213910944066E-19   6.014143555195358E-18    -3.7416473634415476E-18  1.7383654405836197E-15   2.7723486436935655E-15   6.909992480358137E-15    -2.129353850897434E-20   -4.590203428376329E-17   -1.466776947001043E-16   -4.279735983126375E-15   -1.3444989838618763E-15
1.2E-5                    4.333151308999507E-20    -4.8509295234010175E-18  6.1000930395996996E-18   4.707916619517469E-15    1.4181821563801576E-15   1.5060635322097947E-14   -1.9538613600673648E-19  -1.0153087596521867E-16  -3.544831402808869E-16   -9.417331249209678E-15   -1.676575217206451E-14
1.2499999999999999E-5     -7.973370937608218E-20   -1.8866978000686437E-17  4.878826159032279E-17    1.158038679889922E-14    2.864705106808907E-15    1.7370352816367228E-14   -1.467968640187567E-19   -2.4224353871381315E-16  -8.282121043018548E-16   -2.3644348436871375E-14  -3.219658692856405E-14
1.3E-5                    4.573579231922992E-19    4.25092276635768E-18     1.2751782894545098E-16   2.556909438919281E-14    2.034751975359286E-14    2.6175139841408577E-14   4.382447270921429E-19    -6.405913684083626E-16   -2.0032708203047695E-15  -5.626535516089669E-14   -3.168400614816122E-14
1.35E-5                   1.5037137620125976E-18   6.454447500864294E-17    2.0246751194374345E-16   5.516811696523317E-14    6.000190269198968E-14    8.266785058437603E-14    4.706998381445825E-19    -1.6615888425032287E-15  -4.807792170792728E-15   -1.2197428842464496E-13  -4.5761801303742065E-14
1.4E-5                    2.3959890934525625E-18   6.490564070339152E-17    2.5761697344219583E-16   1.1871372366612058E-13   1.0895981892897647E-13   2.190428896305748E-13    -2.2814346507419025E-18  -3.4328035005475474E-15  -1.0986999701625967E-14  -2.522602493796957E-13   -1.5799902241950547E-13
1.45E-5                   5.8281884763447675E-18   -5.1523581089675995E-17  6.022600952425321E-16    2.494867398953584E-13    1.7182759507581387E-13   4.2855809504938993E-13   -6.607075484511544E-18   -6.191486464470189E-15   -2.4012209486548867E-14  -5.076967724014621E-13   -4.1082110619813773E-13
1.4999999999999999E-5     1.8149290017261205E-17   -7.68087028259144E-17    1.9882960964891078E-15   5.092584359394729E-13    3.362841826643144E-13    7.328188090246025E-13    -5.2556569207103854E-18  -1.3353413353015066E-14  -5.107983770128998E-14   -9.796654625182765E-13   -7.503389749787161E-13
1.55E-5                   4.067030444835319E-17    3.287227464347755E-16    4.8883435722193736E-15   1.006844616712865E-12    7.562154605014262E-13    1.2914226946511397E-12   2.409469207341512E-18    -3.3276993201295395E-14  -1.0668558939195697E-13  -1.813508796026964E-12   -1.200463232531094E-12
1.6E-5                    7.311147447365853E-17    1.0888302736308569E-15   9.144057644172411E-15    1.906685744163864E-12    1.53374789515293E-12     2.3738178618518002E-12   -9.88596218060501E-18    -7.245481343699873E-14   -2.1843093653365569E-13  -3.3042426034119665E-12  -2.1031677470912486E-12
1.6499999999999998E-5     1.505903454240347E-16    1.5551285699283367E-15   1.651911328929973E-14    3.4576726207923677E-12   2.717812831030236E-12    4.233676556694947E-12    -8.03023117642749E-17    -1.304247173866949E-13   -4.3475548037569465E-13  -5.993184309611323E-12   -4.019170845947207E-12
1.7E-5                    3.6536003506393503E-16   1.489960981956294E-15    3.4308401460149507E-14   6.098535397844954E-12    4.56978671609089E-12     7.2521469609662E-12      -1.950652753430524E-16   -2.241608828479547E-13   -8.337576822782745E-13   -1.0536325100841336E-11  -7.407843887950014E-12
1.75E-5                   8.078488169031032E-16    2.5965304278655234E-15   7.388713431772545E-14    1.0528858888920598E-11   7.780958937268846E-12    1.2368433313293355E-11   -2.7948724079517686E-16  -4.3193480222683165E-13  -1.537533680881632E-12   -1.725468313245348E-11   -1.275339457790197E-11
1.8E-5                    1.5487706934611053E-15   8.801722334583883E-15    1.4733022115732519E-13   1.7431203708077814E-11   1.3205091513426186E-11   2.0914626359451355E-11   -3.7182768289042047E-16  -8.808720065314854E-13   -2.7391823973763873E-12  -2.5728219353041972E-11  -2.1016288808842524E-11
1.85E-5                   2.927756718169312E-15    2.3719154156000866E-14   2.776161567010375E-13    2.6792028030717778E-11   2.1289213734810995E-11   3.320076117941499E-11    -8.498893614037268E-16   -1.6515136758367964E-12  -4.7240038197395E-12     -3.495360301102614E-11   -3.316482569507281E-11
1.8999999999999998E-5     6.043789177659685E-15    4.6573365409147944E-14   5.215543580764291E-13    3.7434504299534096E-11   3.175573354561917E-11    4.7203485025115334E-11   -2.3032841272252633E-15  -2.7529079401298954E-12  -7.821665479729996E-12   -4.398382384170825E-11   -4.866590307222751E-11
1.95E-5                   1.2784801204378754E-14   7.42278862664351E-14     9.737839060115308E-13    4.745160104450158E-11    4.349287573599114E-11    5.96086877665905E-11     -4.9797137813710465E-15  -4.3366464588209095E-12  -1.2241770963960372E-11  -5.2227699212485264E-11  -6.506929192590171E-11
1.9999999999999998E-5     2.5273215499127868E-14   1.1910192887249432E-13   1.7478553218664324E-12   5.523391589316682E-11    5.4346589425994694E-11   6.857470734651384E-11    -8.676590328075695E-15   -6.947434571886438E-12   -1.7868325270411024E-11  -5.887704584522279E-11   -7.97127393799695E-11
2.05E-5                   4.6479263362673836E-14   2.34292790994387E-13     3.0093958730684247E-12   5.994156231459617E-11    6.151573118981534E-11    7.445558672627865E-11    -1.4227625283121647E-14  -1.1280993764507603E-11  -2.4197478351162403E-11  -6.219884067595417E-11   -9.085058262024357E-11
2.1E-5                    8.435581572638399E-14    5.073170496229955E-13    5.101030803567968E-12    6.090730993590875E-11    6.341113778869054E-11    7.720548173189788E-11    -2.611866377316052E-14   -1.7345755970858074E-11  -3.051201488815718E-11   -5.998363882214486E-11   -9.613359800879078E-11
2.1499999999999997E-5     1.5809400046147467E-13   1.0012830604382373E-12   8.573636051073178E-12    5.683721649552962E-11    6.148857963597197E-11    7.458091933440826E-11    -5.338733652872179E-14   -2.3867786355227698E-11  -3.613645236347802E-11   -5.1096504697029095E-11  -9.168678231207215E-11
2.2E-5                    2.993042988625785E-13    1.717354644184086E-12    1.3829571448414174E-11   4.593355525012317E-11    5.90672295735078E-11     6.436775442631487E-11    -1.0634687481796945E-13  -2.890805317745346E-11   -4.0503879532292836E-11  -3.631232280368696E-11   -7.521619203251414E-11
2.2499999999999998E-5     5.428319309046431E-13    2.7095401154505E-12      2.0471148107467795E-11   2.6916422745248775E-11   5.727926361706228E-11    4.697189846497291E-11    -1.918606107102699E-13   -3.136004278371738E-11   -4.296887843480691E-11   -1.7112593656688414E-11  -4.9196281896921283E-11
2.3E-5                    9.18944625076749E-13     4.327729204666267E-12    2.7046144066936004E-11   -1.279721646804764E-13   5.255386962174278E-11    2.3557308324080608E-11   -3.1588394200783355E-13  -3.172126602439838E-11   -4.2615428054361826E-11  6.273413395603581E-12    -1.7975296924050087E-11
2.35E-5                   1.4777685891517333E-12   7.275543847613102E-12    3.177795326798472E-11    -3.3894573352812515E-11  3.877480899039358E-11    -7.450570678460064E-12   -5.002163269174301E-13   -3.1145438871299196E-11  -3.836959811413364E-11   3.518643220577714E-11    1.837494817652459E-11
2.4E-5                    2.3614920941931294E-12   1.2155281254978844E-11   3.3786736414341855E-11   -7.264315109315579E-11   1.1693883893747116E-11   -4.9305294592670314E-11  -8.076226356329063E-13   -2.975089215414096E-11   -2.94191109480332E-11    7.113663191340888E-11    6.478914260595668E-11
2.45E-5                   3.868398308520342E-12    1.86816818317289E-11     3.344936410866289E-11    -1.146498384852898E-10   -2.8933893837772223E-11  -1.027363324784748E-10   -1.3564186220371156E-12  -2.5992770564835927E-11  -1.5542639311499078E-11  1.1500471726873075E-10   1.257918062488589E-10
2.4999999999999998E-5     6.378200060054957E-12    2.5335065537466133E-11   3.127263198208101E-11    -1.5835659147961345E-10  -8.057751158910128E-11   -1.6553317622057303E-10  -2.308489352606047E-12   -1.7615743750445453E-11  3.079366355062526E-12    1.6777924146669384E-10   2.0180311222431722E-10
2.55E-5                   1.0049714297902031E-11   3.007651080013538E-11    2.640818589177435E-11    -2.0344954395500143E-10  -1.4030581980738742E-10  -2.361873828537176E-10   -3.832109795206555E-12   -3.1159897275688067E-12  2.6490884869478742E-11   2.3082490228355093E-10   2.9035084069853935E-10
2.6E-5                    1.441163405949884E-11    3.171991922988088E-11    1.656405205685528E-11    -2.527692066959306E-10   -2.0653850944269549E-10  -3.1486899449483846E-10  -6.0482879516599365E-12  1.745767346940072E-11    5.5388112287438514E-11   3.043016251460198E-10    3.8737915601753004E-10
2.65E-5                   1.8189687229445156E-11   3.063681997781345E-11    -3.809012470169896E-13   -3.1205197114360197E-10  -2.79908322868956E-10    -4.0029273278963206E-10  -8.953530320328117E-12   4.2710975142919434E-11   9.086384775123057E-11    3.857663641022994E-10    4.86689613245156E-10
2.7E-5                    1.9669353080101996E-11   2.7836804426815277E-11   -2.460120699199955E-11   -3.8529724280944193E-10  -3.629560640234484E-10   -4.886821226366228E-10   -1.2306517339084223E-11  7.09575777340295E-11     1.3375152661192753E-10   4.713143033922067E-10    5.816043675821595E-10
2.7499999999999998E-5     1.7499678468396734E-11   2.3061721571792884E-11   -5.4043788066551033E-11  -4.692090847428048E-10   -4.5808436780891024E-10  -5.769840508378482E-10   -1.551810780605098E-11   1.0157985893063441E-10   1.8419052988807282E-10   5.578299014054299E-10    6.692750790068362E-10
2.8E-5                    1.1413737801631887E-11   1.3834969200712896E-11   -8.577854500229844E-11   -5.530801391265012E-10   -5.643860377888654E-10   -6.644871219955017E-10   -1.7666063451758275E-11  1.3558372918589464E-10   2.414665053669077E-10    6.429978215913643E-10    7.516287713511996E-10
2.8499999999999998E-5     2.3255775122241313E-12   -3.1381515950758056E-12  -1.177883494312537E-10   -6.248852438622674E-10   -6.758184579138793E-10   -7.498626546650252E-10   -1.774970902719529E-11   1.7448863487933516E-10   3.037169213985749E-10    7.229196936375458E-10    8.305927245197083E-10
2.9E-5                    -8.254122533544381E-12   -2.906284975894958E-11   -1.4991274348074426E-10  -6.770216187890498E-10   -7.829729152523869E-10   -8.288150214717361E-10   -1.512710735477006E-11   2.1830814817051538E-10   3.6764064971798397E-10   7.907078416614751E-10    9.033187917820915E-10
2.95E-5                   -1.8995431149583437E-11  -6.133311142888711E-11   -1.8334065953557818E-10  -7.064130196411003E-10   -8.771886370496777E-10   -8.959852297161615E-10   -9.848973162011437E-12   2.645720498254333E-10    4.2898621714727327E-10   8.380866478461098E-10    9.622809252807515E-10
2.9999999999999997E-5     -2.914827031413244E-11   -9.500880281948744E-11   -2.1889276379292565E-10  -7.112706439463861E-10   -9.527105403481054E-10   -9.467420537864226E-10   -2.5676722469563366E-12  3.09327290648807E-10     4.839029503725555E-10    8.579585372834032E-10    9.977675042372362E-10
3.05E-5                   -3.84449990732277E-11    -1.2650674273485061E-10  -2.5520193404333527E-10  -6.894258805012671E-10   -1.0049634114761833E-9   -9.748256828983303E-10   6.018614628589038E-12    3.4894448409989014E-10   5.298753194524881E-10    8.448048532261079E-10    9.986475982451352E-10
3.1E-5                    -4.690709115530025E-11   -1.5606590711651085E-10  -2.8830994177662157E-10  -6.384594715318881E-10   -1.0281469194953753E-9   -9.697433427280183E-10   1.5815906067986884E-11   3.809029438816222E-10    5.650081869617529E-10    7.928113859255562E-10    9.523517153061098E-10
3.15E-5                   -5.4973186035788586E-11  -1.8641496919395082E-10  -3.133266181782387E-10   -5.546993470361033E-10   -1.0151407599263896E-9   -9.190514906189183E-10   2.7540794687986332E-11   4.030870276965047E-10    5.862050109385967E-10    6.944822028120882E-10    8.471647490537023E-10
3.2E-5                    -6.38052655519045E-11    -2.1875403607979858E-10  -3.269157105491757E-10   -4.312136988842807E-10   -9.57739494403326E-10    -8.129134122105213E-10   4.22252629999506E-11     4.127424572819836E-10    5.881038347870045E-10    5.417430663621907E-10    6.758983303591412E-10
3.25E-5                   -7.510152103961324E-11   -2.499703716283175E-10   -3.2830483129302423E-10  -2.5823317692920726E-10  -8.452815053646483E-10   -6.447862350849049E-10   6.030514923935205E-11    4.0641589944723724E-10   5.638481353469813E-10    3.2849789459169976E-10   4.3681493935763805E-10
3.2999999999999996E-5     -8.999714675864167E-11   -2.7389248111506527E-10  -3.1773940944356314E-10  -2.733848260664091E-11   -6.654533066858465E-10   -4.0869021683143794E-10  8.094562414326973E-11    3.8090636573887083E-10   5.069338510358531E-10    5.211574272070579E-11    1.3055986283922834E-10
3.35E-5                   -1.076384849435488E-10   -2.8538002296706686E-10  -2.938794796423332E-10   2.6381313738246535E-10   -4.104727344892683E-10   -9.93490992986952E-11    1.0212273438834348E-10   3.3398694471970043E-10   4.126001122897773E-10    -2.8720741311807156E-10  -2.432536782794359E-10
3.4E-5                    -1.2474354251789596E-10  -2.832750754470659E-10   -2.528649054177857E-10   6.104762151516618E-10    -8.254930085051358E-11   2.8326029438310574E-10   1.2141903945830712E-10   2.639659550641743E-10    2.7797675821883317E-10   -6.880211756379035E-10   -6.858921650001029E-10
3.45E-5                   -1.3691971048489307E-10  -2.695082303630185E-10   -1.9009930052315992E-10  1.0041608014490188E-9    3.102540164290992E-10    7.317065261901714E-10    1.3695780033532641E-10   1.6872827068303864E-10   1.0130351794610278E-10   -1.1483191802253251E-9   -1.196043841642149E-9
3.5E-5                    -1.4098644862599417E-10  -2.4551423391322923E-10  -1.0284513652627665E-10  1.4367145866651195E-9    7.649447907423762E-10    1.2362781024834086E-9    1.4785226514699787E-10   4.5627664925679894E-11   -1.1891657761585194E-10  -1.6645437475815994E-9   -1.766384358145487E-9
3.5499999999999996E-5     -1.3648647884974469E-10  -2.0955488293126718E-10  9.174232187886004E-12    1.9010601271987835E-9    1.287945430469972E-9     1.7917523273684616E-9    1.5399902400769556E-10   -1.0750290734466858E-10  -3.840062720578045E-10   -2.229342745101892E-9    -2.382784336057749E-9
3.6E-5                    -1.2506346712440548E-10  -1.5727571469503693E-10  1.4555126991207424E-10   2.388341939126384E-9     1.886270689361973E-9     2.395937082789084E-9     1.555223424203843E-10    -2.912440107384236E-10   -6.941259751441408E-10   -2.829354402477751E-9    -3.0263522744830116E-9
3.65E-5                   -1.0806909597996208E-10  -8.44774279875793E-11    3.0673022274126464E-10   2.885008536659103E-9     2.5545347231821392E-9    3.04049554331271E-9      1.5223246538411633E-10   -5.041801765114589E-10   -1.0466777562662751E-9   -3.4444268892794705E-9   -3.6763303389320045E-9
3.7E-5                    -8.422679930501571E-11   1.078757352315308E-11    4.928510661813274E-10    3.3725858883895293E-9    3.270840029174139E-9     3.705237770498035E-9     1.4320288267036664E-10   -7.429842195462774E-10   -1.4350366752963052E-9   -4.048828888957504E-9    -4.310813739377241E-9
3.75E-5                   -4.927445177007105E-11   1.2844655348288566E-10   7.007848798057806E-10    3.829049567863145E-9     4.0037292484209606E-9    4.362123789454557E-9     1.264804422589745E-10    -1.0025422535691973E-9   -1.8482432661165486E-9   -4.6136085348592274E-9   -4.904188580083728E-9
3.7999999999999995E-5     1.8278775247543515E-12   2.6798539755689E-10      9.226512630311101E-10    4.22929737003273E-9      4.721471068420737E-9     4.981947151148246E-9     9.915456078446491E-11    -1.27601925891357E-9     -2.271662330537011E-9    -5.10850962306217E-9     -5.4244349744871914E-9
3.85E-5                   7.139799580204442E-11    4.29186800673261E-10     1.1475697754940555E-9    4.544778574662034E-9     5.395190004756166E-9     5.534962658016485E-9     5.808104049522734E-11    -1.5548225645882462E-9   -2.688252800705603E-9    -5.502393923931268E-9    -5.8342897254275015E-9
3.9E-5                    1.5664797471287896E-10   6.109773540852618E-10    1.3648740267955712E-9    4.7444436957597995E-9    5.9951582126947765E-9    5.987633121885663E-9     1.113733894599035E-12    -1.8283675483604813E-9   -3.079847964588067E-9    -5.76244295736322E-9     -6.095252028303109E-9
3.95E-5                   2.503611750666435E-10    8.093299343258078E-10    1.565740640843928E-9     4.797600407303034E-9     6.48554718570116E-9      6.3028632424381776E-9    -7.190126551857442E-11   -2.0838888174624105E-9   -3.4275585350340454E-9   -5.853545266879253E-9    -6.169886082263487E-9
3.9999999999999996E-5     3.445867840933117E-10    1.0160698621675844E-9    1.742223319903923E-9     4.676550305366917E-9     6.822776870760536E-9     6.443891686781314E-9     -1.5913804224219846E-10  -2.3067570628854555E-9   -3.710770757472011E-9    -5.7392979640821725E-9   -6.021916057977889E-9
4.0499999999999995E-5     4.350026094716538E-10    1.2196418674761543E-9    1.885173114623782E-9     4.357015474766994E-9     6.958653696706911E-9     6.376493028953846E-9     -2.578419629050847E-10   -2.481273770925797E-9    -3.905603310001939E-9    -5.384716992054445E-9    -5.618339591544846E-9
4.1E-5                    5.22705134264011E-10     1.4072855895045093E-9    1.9828757519941633E-9    3.817076681038587E-9     6.846353876268888E-9     6.068762729472005E-9     -3.6559080595672764E-10  -2.5913634775660333E-9   -3.984831977002538E-9    -4.759331555750182E-9    -4.934277282061952E-9
4.15E-5                   6.116956654499572E-10    1.5669983075738805E-9    2.0209854941870233E-9    3.0371322662150045E-9    6.446733031744279E-9     5.492263328681531E-9     -4.807399495490049E-10   -2.620855807724691E-9    -3.920467640923469E-9    -3.839556365405986E-9    -3.9551176784504255E-9
4.2E-5                    7.034474724749484E-10    1.687968547884392E-9     1.9834554188618615E-9    2.0023510708407834E-9    5.732384772080719E-9     4.6247175934887256E-9    -6.016626897666837E-10   -2.55375549329662E-9     -3.6877218343660514E-9   -2.610604968574848E-9    -2.673255032980234E-9
4.2499999999999996E-5     7.923787394563314E-10    1.7595867680205357E-9    1.8542229353924103E-9    7.067274025172428E-10    4.686656474134119E-9     3.4508273714125133E-9    -7.253331898306242E-10   -2.374978981020635E-9    -3.267572115891754E-9    -1.0684384390918963E-9   -1.0852981733666425E-9
4.2999999999999995E-5     8.65753179522086E-10     1.7704542513597093E-9    1.61949406519299E-9      -8.434003637626957E-10   3.297820111574231E-9     1.9613641065452196E-9    -8.46294751245213E-10    -2.0714437948677066E-9   -2.6464918646480644E-9   7.788909516215671E-10    8.037391764394816E-10
4.35E-5                   9.084302245947268E-10    1.7087854219814951E-9    1.2700583551137293E-9    -2.6278951762276482E-9   1.5547758469726023E-9    1.544052729130477E-10    -9.567395324088762E-10   -1.6330886649718963E-9   -1.8149300371793983E-9   2.911186675505636E-9     2.9719196772513153E-9
4.4E-5                    9.092310285354128E-10    1.5641774858727313E-9    8.027606610528718E-10    -4.613507445883135E-9    -5.483157304269917E-10   -1.960611906001366E-9    -1.0475612583461128E-9   -1.0537963485125217E-9   -7.674756302739805E-10   5.296355450357754E-9     5.375928754190582E-9
4.45E-5                   8.643634806783175E-10    1.3292373758790757E-9    2.2069223028101334E-10   -6.7557006112504876E-9   -3.00023913679106E-9     -4.359612812904786E-9    -1.1095302760318713E-9   -3.32576108322936E-10    4.942866689156172E-10    7.889374353529182E-9     7.953971860941219E-9
4.4999999999999996E-5     7.755431770018571E-10    9.995348253052582E-10    -4.675046603955747E-10   -9.000369544251967E-9    -5.764632761427712E-9    -7.003036290578646E-9    -1.1337738808455947E-9   5.249537644098092E-10    1.958172484977444E-9     1.0630281843052814E-8    1.0631657926510122E-8
4.5499999999999995E-5     6.445304627693876E-10    5.719902721846762E-10    -1.2484666000946095E-9   -1.1284609578152614E-8   -8.782311935090944E-9    -9.835280550143644E-9    -1.1115072160968154E-9   1.5054104809257511E-9    3.5995650099454004E-9    1.3443102237602897E-8    1.3325834185957805E-8
4.6E-5                    4.685494306200683E-10    4.365732711756373E-11    -2.1046619282733946E-9   -1.3536375234134409E-8   -1.1978234021870103E-8   -1.2783757502162172E-8   -1.0337769625198933E-9   2.587581546605774E-9     5.381824695500369E-9     1.6236658590322714E-8    1.5945621344197894E-8
4.65E-5                   2.4028994803478713E-10   -5.869244738060093E-10   -3.014628458379481E-9    -1.567365837505207E-8    -1.5263749326804422E-8   -1.5760366655709656E-8   -8.920542199348151E-10   3.743531638923831E-9     7.257600400537714E-9     1.89066051165891E-8      1.83924308717152E-8
4.7E-5                    -4.739253279576154E-11   -1.3155705272387286E-9   -3.952750166980117E-9    -1.76046275725368E-8     -1.8533944369885756E-8   -1.8666635449647656E-8   -6.796996087711047E-10   4.940061831128365E-9     9.169983679691762E-9     2.1338103680805774E-8    2.0560628599783085E-8
4.7499999999999996E-5     -3.95482399055506E-10    -2.1278704339976027E-9   -4.8883384342830365E-9   -1.923033282884521E-8    -2.1667601707598104E-8   -2.139909177904258E-8    -3.9341056397134256E-10  6.139457103102504E-9     1.1053581541947692E-8    2.340939859151933E-8     2.234022977761838E-8
4.8E-5                    -7.957338637798717E-10   -2.997498328906186E-9    -5.7844795358862016E-9   -2.045018615011703E-8    -2.4533552416324333E-8   -2.385111911043502E-8    -3.373978459178729E-11   7.299239033002891E-9     1.2835739938097216E-8    2.499633847930197E-8     2.362218458511551E-8
4.85E-5                   -1.2324723029716921E-9   -3.888837519100196E-9    -6.5980993639018E-9      -2.1168157207409227E-8   -2.6998890789325784E-8   -2.5911980995714742E-8   3.953039451626965E-10    8.371826876079773E-9     1.4437641516827563E-8    2.5977290371830088E-8    2.430455049604549E-8