% Model:              Untitled.mph
% Version:            COMSOL 6.0.0.405
% Date:               Jul 15 2025, 19:08
% Dimension:          1
% Nodes:              401
% Expressions:        11
% Description:        Point graph
% Time (s)                Displacement field, Y component Displacement field, Y component Displacement field, Y component Displacement field, Y component Displacement field, Y component Displacement field, Y component Displacement field, Y component Displacement field, Y component Displacement field, Y component Displacement field, Y component Displacement field, Y component
0                         3.327816074644429E-35    -1.3615705315374354E-34  -5.028835587439601E-34   2.7820266574130383E-34   2.752663534303805E-31    -1.2971270155475642E-31  -9.312980979569819E-37   -1.2387175827315141E-36  -2.063824904271097E-36   -5.710674719096865E-32   -2.3503312214035614E-30
5.0E-7                    -4.775561812631576E-26   -3.8310598874302674E-25  3.40605112562665E-25     -8.36864180000834E-25    -3.1121009856788734E-22  1.2410175393329069E-22   1.4876761705101264E-28   2.5170412135843044E-28   3.289474604649162E-28    1.1722180323516263E-24   4.0609501603558656E-22
1.0E-6                    7.56807901761283E-26     -2.381541578110619E-24   -2.2857604098943913E-25  -9.298092359448909E-26   4.74366689455325E-22     -6.088523321081111E-22   -3.909640952628131E-28   -9.213080371330903E-28   -4.8863800724585255E-28  2.092830797857852E-23    -7.271449795685854E-22
1.5E-6                    6.702491088821904E-25    4.62953361242612E-24     -4.309999448380639E-24   1.6404828282800695E-23   8.379637911612321E-21    -5.836418082340468E-22   1.5975026315844626E-27   3.2887093762146805E-27   8.73852519786729E-28     2.2054541230740695E-23   -3.2743048597623033E-21
2.0E-6                    -1.1987422481525388E-24  3.7041161098419905E-23   3.0656274421487594E-23   1.0789026696166465E-23   -2.509887938970848E-20   7.237327871549719E-21    -5.501776521814509E-27   -6.952890414092496E-27   -2.4359048840987634E-27  -1.7291824668268745E-22  2.949667090100675E-20
2.4999999999999998E-6     -5.107998718830547E-24   -3.0192460359526467E-24  6.85676722070535E-23     -1.7292231217084374E-22  -5.165743741760006E-20   9.368313568392116E-21    8.031489646387546E-27    -1.1490399753955001E-26  2.1457992878427688E-27   -4.632298802296185E-22   -6.342235317236982E-20
3.0E-6                    1.0040124923761347E-23   -2.7744561453605085E-22  -4.740849926071193E-22   -1.7913222911244258E-22  2.35680280541691E-19     -7.601697436601598E-20   2.618960921995339E-26    1.1930271318980813E-25   -1.0540507769483882E-26  3.295908971603306E-21    -5.857337770470867E-20
3.5E-6                    3.303874663838925E-23    -1.1677540147181533E-22  -9.380908203288962E-22   1.231611634812363E-21    1.9952810637999318E-19   -1.0209998087496979E-19  -1.6043594896318911E-25  -1.3490445998622343E-25  5.921758133281643E-27    -8.232911510052604E-21   3.1927192756270322E-19
4.0E-6                    -7.183125459569558E-23   1.473622626829739E-21    2.914031130786863E-21    1.4015441942514634E-21   -1.0408092445200192E-18  6.463307233247408E-19    2.03951562469573E-25     -7.131824855304128E-25   4.794767967029675E-25    -1.1782309027551323E-20  5.486245695969978E-20
4.5E-6                    -1.9523124218811592E-22  -2.670172038993936E-22   8.940897064587903E-21    -7.9267779141327E-21     -8.130573117467431E-19   7.10331921022279E-19     7.08040920482147E-25     9.002894004260973E-25    -1.314426382437906E-24   1.1252747849880232E-19   -4.376525730624644E-19
4.9999999999999996E-6     4.261849385716814E-22    -9.779043746164908E-21   -5.580536920945961E-21   -1.0194425814356022E-20  2.7087573431686555E-18   -3.678429331575981E-18   -2.2706037081454217E-24  3.984344235671699E-24    -4.919742356474991E-24   -3.761402350098902E-20   -2.083206322119169E-18
5.5E-6                    1.0923573342587833E-21   7.827870846531715E-21    -5.1028286549611745E-20  4.830391275588257E-20    6.241370378783937E-18    -3.836005659191412E-18   -1.1081698350470353E-24  1.7325060056158602E-25   1.354136063683241E-23    -8.853206536478387E-19   -1.1966639151998663E-18
6.0E-6                    -1.8214505440197914E-21  7.952660796969301E-20    -2.6793888749013192E-20  7.976219087738658E-20    4.966343765711438E-18    1.51467039194463E-17     1.1112546379636384E-23   -2.3406119966216224E-23  3.321757446613673E-23    1.4172310289381382E-19   1.7797613929079507E-17
6.5E-6                    -5.1536155820762384E-21  -1.8730486567350637E-20  2.3187518839675056E-19   -2.621708712382612E-19   -2.1556364070528287E-17  2.114479649246698E-17    -3.731899992181768E-24   -4.1108213154697606E-23  -8.849901668004998E-23   4.540170112879274E-18    6.953307195990854E-18
7.0E-6                    5.6786393610520284E-21   -5.303634138995321E-19   4.3327421696238737E-19   -5.913860097687142E-19   -4.9531887066659076E-17  -3.5038151323619235E-17  -3.4766659203079563E-23  1.0816033826216655E-22   -2.2062181551597117E-22  -4.482220330530723E-19   -9.476681265274161E-17
7.499999999999999E-6      2.0903844480046366E-20   -3.3780960946265196E-19  -3.7147817407955683E-19  1.0911303495649575E-18   1.0556233222311456E-16   -7.845893988945885E-17   3.616578671264454E-23    3.750666038613401E-22    3.1502973029097675E-22   -2.5299563415166434E-17  -5.191054403086472E-17
8.0E-6                    -9.187011270686967E-21   2.462385781527606E-18    -1.5273485619538937E-18  3.4614941630685395E-18   4.314462750907638E-16    3.742287640147755E-17    6.394328400050943E-23    -3.054281982498702E-22   1.00716791569135E-21     -2.366834135785906E-17   2.9549974763482985E-16
8.5E-6                    -6.408283288730564E-20   4.033041683422856E-18    1.8320572479355554E-18   -3.1710232147665085E-18  2.3422767377256284E-16   2.8776889705823113E-16   -2.0932655422454077E-22  -2.220088508500217E-21   -1.0856999273173455E-21  5.5044898747191775E-17   1.1706617159295486E-16
9.0E-6                    1.3629471157061813E-20   -6.100586556517011E-18   1.2094914350863469E-17   -1.4914996251289235E-17  -5.66695223082091E-16    4.1742535740603686E-16   -1.85197432901529E-24    -3.322478894557179E-22   -5.112080850281532E-21   3.687812502209115E-17    -1.1020015141273407E-15
9.499999999999999E-6      2.402619714704598E-19    -2.02423190124752E-17    1.675546073954505E-17    1.1384597606732775E-17   4.0658623109798306E-16   -2.0464149468367185E-17  1.150544342735142E-21    9.259150366043839E-21    -6.944597326448269E-22   -4.099247146998147E-16   -1.4048114126050469E-15
9.999999999999999E-6      2.164711797196833E-19    4.822740421572036E-18    8.074604121370681E-18    7.64808529136309E-17     5.2165648019301545E-15   -9.45980092848846E-16    -3.591685633344023E-22   8.114075162351656E-21    1.0794406058565319E-20   -1.0699807482523729E-15  1.9262397290903462E-16
1.05E-5                   -2.283965136017951E-19   7.701842701438506E-17    4.654118105736611E-17    3.2536475351844284E-17   1.102093414647549E-14    2.7992289629412364E-16   -6.178685754416262E-21   -3.0517666263012493E-20  -1.498900035687239E-20   -1.2664351592428095E-15  -1.1062489806595001E-15
1.1E-5                    3.2940340905290217E-19   7.859828787194434E-17    2.620082029398021E-16    -1.2968276473284887E-16  1.5453660864648212E-14   7.305810646931285E-15    -1.156464131528751E-21   -6.00236484754514E-20    -1.137530820331936E-19   -2.341076320774252E-15   -1.0257113583825064E-14
1.15E-5                   4.529287195483711E-18    -7.867041237181922E-17   7.177887879564642E-16    2.0282749326977571E-16   2.8112948359255967E-14   1.6231020339919694E-14   2.611179647665886E-20    4.043423976781079E-20    -2.0917390853593593E-19  -9.44152106546725E-15    -2.6290569567184152E-14
1.2E-5                    1.263043921671083E-17    -1.1466126050157395E-16  1.451834472428698E-15    1.6185891483527615E-15   6.699936861878193E-14    1.718703374483276E-14    1.8439756098053934E-20   2.026875756119552E-19    -3.091363350512773E-19   -2.8145526865477597E-14  -5.2452355722342183E-14
1.2499999999999999E-5     2.2644128491119827E-17   4.594223981335923E-16    3.1690443837061114E-15   3.293341197900038E-15    1.475097087136748E-13    2.1073897239308208E-14   -1.0063573652499459E-19  -3.598051062683831E-20   -1.1106001510683809E-18  -6.30408035782192E-14    -1.0553220377632861E-13
1.3E-5                    4.624476833559418E-17    1.551784555543494E-15    8.179528015029344E-15    4.96465582232171E-15     3.041149962597617E-13    7.203865328244036E-14    -1.68340613862284E-19    -9.451653369706941E-19   -4.0929015317866764E-18  -1.3256519680770122E-13  -2.2079716127682856E-13
1.35E-5                   1.3517602820807542E-16   2.5915003899749986E-15   2.056972392172977E-14    1.2999325190495998E-14   6.281947012258562E-13    2.0417787792215284E-13   1.644603865774088E-19    -1.5909587847186605E-18  -1.0789852367009685E-17  -2.9338013570943023E-13  -4.91900361256267E-13
1.4E-5                    3.9711162218338305E-16   4.6259207478257044E-15   4.6905818831321944E-14   4.145890266541047E-14    1.2330137091591101E-12   4.1867462159697877E-13   5.091054172532244E-19    -8.047775615668951E-19   -2.481812317208302E-17   -6.496829866086143E-13   -1.0960395744971808E-12
1.45E-5                   1.0142609287616811E-15   1.209421119100491E-14    1.017126753105579E-13    1.0502949863143376E-13   2.1859385147808066E-12   7.727643128435014E-13    -6.454503581855228E-19   -1.3752651023347836E-18  -6.121610714854868E-17   -1.3560387255133448E-12  -2.2079535434869743E-12
1.4999999999999999E-5     2.3262393405317946E-15   3.1295595235700627E-14   2.189120826785128E-13    2.2691985611885136E-13   3.681135837850301E-12    1.449332722616807E-12    -3.4350708604989486E-18  -1.2380618528321263E-17  -1.600348947595492E-16   -2.6536081210914046E-12  -4.012710872674225E-12
1.55E-5                   5.089131257232096E-15    6.905227209004442E-14    4.642476525656317E-13    4.838245329993165E-13    6.487369410664912E-12    2.6560731157850527E-12   -4.3803248419743356E-18  -4.242313813094672E-17   -4.0053617443647854E-16  -4.9210637437194924E-12  -7.098193670093564E-12
1.6E-5                    1.1198979168137979E-14   1.4081362411633014E-13   9.458879541702149E-13    1.053809408603683E-12    1.1930187677980264E-11   4.6361679501316575E-12   -2.8995133629738614E-18  -9.305726206424625E-17   -9.397355694465083E-16   -8.641929391185393E-12   -1.262013037260223E-11
1.6499999999999998E-5     2.514525416664684E-14    2.8964912713956655E-13   1.825556515462995E-12    2.2043781739226216E-12   2.0701718837058425E-11   8.079820238678178E-12    -1.3265354835799147E-17  -1.8487881850011105E-16  -2.1301195108380772E-15  -1.4216470126743011E-11  -2.1190716146927962E-11
1.7E-5                    5.562822771896235E-14    5.999226638756599E-13    3.3268612546944016E-12   4.251718148424913E-12    3.155142500844323E-11    1.4255180763481114E-11   -5.950369631569817E-17   -4.2875158505794886E-16  -4.7621513061040724E-15  -2.1630161291997548E-11  -3.134023383872494E-11
1.75E-5                   1.1671075015152245E-13   1.1889900602599917E-12   5.731935424766018E-12    7.61851569832183E-12     4.2041532272313076E-11   2.3900718796836623E-11   -1.5149713354978761E-16  -1.0852856712642627E-15  -1.0467703186594937E-14  -3.009217785325482E-11   -4.023048124880401E-11
1.8E-5                    2.31411537939884E-13     2.1955881815860477E-12   9.339090163338598E-12    1.2932035518101098E-11   5.102046761893933E-11    3.581300042615143E-11    -3.0214272877511542E-16  -2.569369289478122E-15   -2.2404818000487732E-14  -3.797932083879593E-11   -4.6647020644707155E-11
1.85E-5                   4.432741531433915E-13    3.8105205013629886E-12   1.4274745486766744E-11   2.0704826885160743E-11   5.913797223905097E-11    4.7522501875582515E-11   -6.398884572806324E-16   -5.57475898989477E-15    -4.6496254263459855E-14  -4.3475546865548295E-11  -5.18897339926915E-11
1.8999999999999998E-5     8.321463688767698E-13    6.325915525585784E-12    2.006183871066383E-11    3.029304012031133E-11    6.603181028282152E-11    5.796087116044412E-11    -1.5389684331430107E-15  -1.1679766246035288E-14  -9.355849312215378E-14   -4.5594264536201486E-11  -5.630972658471504E-11
1.95E-5                   1.5152272883869877E-12   1.0043780040129394E-11   2.5256613132690283E-11   3.904849400067405E-11    6.875413350757593E-11    6.83667866146918E-11     -3.6369224581104836E-15  -2.449602802037427E-14   -1.8244151719426946E-13  -4.440672900723211E-11   -5.6667944389367484E-11
1.9999999999999998E-5     2.6219234953484664E-12   1.4923946499369778E-11   2.7924296747198426E-11   4.346656012530945E-11    6.507792095525845E-11    7.934817233222322E-11    -7.890974304159128E-15   -5.0875034361015836E-14  -3.4351304392863083E-13  -4.0000000837311246E-11  -4.9580717890002614E-11
2.05E-5                   4.260981127685842E-12    2.0210794865044527E-11   2.7071634970534344E-11   4.22908534904041E-11     5.68524978284263E-11     8.786619443875957E-11    -1.6174663102159445E-14  -1.0202775231591544E-13  -6.204767895857525E-13   -3.164300115927284E-11   -3.64360201632893E-11
2.1E-5                    6.495456930300198E-12    2.456927750454525E-11    2.351897333989226E-11    3.8064067939548954E-11   4.685423710218385E-11    8.879693897149036E-11    -3.263997652567512E-14   -1.957753585750799E-13   -1.0677521420139922E-12  -1.8669773239304133E-11  -2.132467583043808E-11
2.1499999999999997E-5     9.290834094021689E-12    2.6864167473603235E-11   1.8675834532773975E-11   3.4058130873172284E-11   3.28497490645423E-11     7.92418709792782E-11     -6.522552763471933E-14   -3.610852740403881E-13   -1.7414324391984031E-12  -1.7729344183731879E-12  -4.2667331088679575E-12
2.2E-5                    1.2407881120796769E-11   2.682633164132238E-11    1.2501201326542747E-11   2.962682500715045E-11    8.242782953626731E-12    5.966247553517546E-11    -1.266010199559081E-13   -6.425364768979572E-13   -2.6820108995867557E-12  1.7911614824394052E-11   1.9680056792269642E-11
2.2499999999999998E-5     1.5336481453639467E-11   2.4694565765591694E-11   3.675531347712695E-12    2.052383844460075E-11    -3.1308804024355823E-11  3.075093243764555E-11    -2.351832443211172E-13   -1.0986038738495547E-12  -3.884691774197192E-12   4.1293803178820375E-11   5.4025151598482426E-11
2.3E-5                    1.743016720556496E-11    2.0158200258616134E-11   -8.096541176525338E-12   4.2559918913500195E-12   -8.524814096797057E-11   -9.01698697708747E-12    -4.1761122124813455E-13  -1.7888767587958912E-12  -5.2565275987927326E-12  7.156739081845837E-11    9.750729991097502E-11
2.35E-5                   1.8197463387029212E-11   1.213312826427703E-11    -2.1487991390548966E-11  -1.7527151557926037E-11  -1.5194332775137246E-10  -6.209608923712146E-11   -7.116433502230897E-13   -2.749010076830085E-12   -6.581713359967714E-12   1.1103849544846448E-10   1.483746618995078E-10
2.4E-5                    1.743902516712778E-11    3.1760283683934177E-14   -3.6026631228244435E-11  -4.3385021742503316E-11  -2.308905567953558E-10   -1.2944635899693905E-10  -1.164400521780849E-12   -3.951463842088162E-12   -7.542486481008505E-12   1.5855375960758948E-10   2.0808142212929976E-10
2.45E-5                   1.5045931386331525E-11   -1.5125506667334535E-11  -5.356492748618945E-11   -7.571178779130122E-11   -3.2016174560807316E-10  -2.1000823453839028E-10  -1.820134413210882E-12   -5.2536536723885145E-12  -7.822635349830932E-12   2.1100314976882777E-10   2.7846298920178986E-10
2.4999999999999998E-5     1.0745423966433762E-11   -3.175923185103968E-11   -7.585300079028345E-11   -1.1696725561142524E-10  -4.157779734886517E-10   -3.0166246799369076E-10  -2.6955334464803104E-12  -6.36349976644029E-12    -7.236125396296582E-12   2.6650110689548165E-10   3.579024016108935E-10
2.55E-5                   4.203784193677086E-12    -5.0000192926915107E-11  -1.0191622638666971E-10  -1.6456994109811517E-10  -5.153785075950907E-10   -4.0241143119416035E-10  -3.745795612369054E-12   -6.887292789835352E-12   -5.762978876750281E-12   3.246195703747721E-10    4.420504131259527E-10
2.6E-5                    -4.644470652579887E-12   -7.18896581241618E-11    -1.2941175917820248E-10  -2.1331343495857933E-10  -6.190969255631702E-10   -5.114064487076155E-10   -4.832639241413964E-12   -6.4914282139557435E-12  -3.452035195123318E-12   3.838248437391817E-10    5.260622214899509E-10
2.65E-5                   -1.56195394038749E-11    -9.860214096012574E-11   -1.5732736836231374E-10  -2.614804530431422E-10   -7.248501861012282E-10   -6.283612646885961E-10   -5.720524544283411E-12   -5.081625811370459E-12   -3.121683453703435E-13   4.404707124840069E-10    6.05017271336423E-10
2.7E-5                    -2.878659437486997E-11   -1.2820192616639407E-10  -1.8551432829295628E-10  -3.1075954515143807E-10  -8.254893584945044E-10   -7.502024538190487E-10   -6.135159010266359E-12   -2.81808075407207E-12    3.662784832767183E-12    4.908730795990583E-10    6.746523711556619E-10
2.7499999999999998E-5     -4.4699340297809156E-11  -1.5718575256300966E-10  -2.1284355325138413E-10  -3.61128733637075E-10    -9.122166260095225E-10   -8.683610436828041E-10   -5.883176151724193E-12   8.142620514672143E-14    8.388667171495922E-12    5.328335058619275E-10    7.325941735936855E-10
2.8E-5                    -6.382916478782946E-11   -1.8381713228853796E-10  -2.381142544437427E-10   -4.097915057368692E-10   -9.779877484270112E-10   -9.714852948381275E-10   -4.953402584143353E-12   3.537371521467864E-12    1.3718666735678057E-11   5.637982605442395E-10    7.760491463372234E-10
2.8499999999999998E-5     -8.577027832385634E-11   -2.08661600926746E-10    -2.617351689023617E-10   -4.544058412416425E-10   -1.015397275518676E-9    -1.0511691762480608E-9   -3.484410569708307E-12   7.561798687760083E-12    1.9653036007438486E-11   5.784571431020466E-10    7.970574922540092E-10
2.9E-5                    -1.0931318549441346E-10  -2.3184472862507946E-10  -2.8372515917956666E-10  -4.927903789754675E-10   -1.013545889821957E-9    -1.1028002969923957E-9   -1.5843068466579144E-12  1.2060252213285603E-11   2.646053547476702E-11    5.698746149133151E-10    7.826788425283768E-10
2.95E-5                   -1.3334759528837393E-10  -2.511891795701363E-10   -3.002874517273572E-10   -5.189139102057956E-10   -9.600241457834777E-10   -1.1202732958942017E-9   8.372155201375788E-13    1.6832436554269455E-11   3.44497010796361E-11     5.326020883735313E-10    7.215523180481881E-10
2.9999999999999997E-5     -1.5727854044788982E-10  -2.637017623409322E-10   -3.0484889348251925E-10  -5.231536593412762E-10   -8.456135023870894E-10   -1.0924756589217397E-9   4.036256228324647E-12    2.1847986258748876E-11   4.355222776972959E-11    4.6274123995657766E-10   6.086880166439622E-10
3.05E-5                   -1.802154168901337E-10   -2.6788559227896607E-10  -2.9271211753437027E-10  -4.980916871840408E-10   -6.650571709921618E-10   -1.0061543547803984E-9   8.221952379755321E-12    2.738121501174872E-11    5.318050890202019E-11    3.551205004556336E-10    4.428913668818984E-10
3.1E-5                    -1.999984761952248E-10   -2.6354488269574194E-10  -2.6283654832964274E-10  -4.4203369226719744E-10  -4.1321356507328895E-10  -8.500043595630383E-10   1.3393668077730793E-11   3.3669509968347805E-11   6.254222114887327E-11    2.033863820436786E-10    2.214459888363241E-10
3.15E-5                   -2.135495096426629E-10   -2.4956679540868904E-10  -2.1513545831851569E-10  -3.5652164002679697E-10  -8.2614454814381E-11     -6.150154522621515E-10   1.9382011881035518E-11   4.044656755757558E-11    7.105228611579341E-11    4.5031178879089304E-12   -6.077571553425499E-11
3.2E-5                    -2.183316437508794E-10   -2.2263257518546455E-10  -1.481569023045835E-10   -2.424466423894481E-10   3.3331683705865496E-10   -2.9394053785042533E-10  2.5989567168605156E-11   4.6997987963103875E-11   7.837278700173038E-11    -2.388293780194249E-10   -4.0745203670180587E-10
3.25E-5                   -2.132255488735163E-10   -1.7816349724714187E-10  -5.996605754275897E-11   -9.834831849394739E-11   8.347534430373902E-10    1.1701666320071516E-10   3.306121057888688E-11    5.2714340179948085E-11   8.406303556703232E-11    -5.221118925267957E-10   -8.175307282686494E-10
3.2999999999999996E-5     -1.978781486724067E-10   -1.1216880044073264E-10  5.0213487457654673E-11   8.004038896607659E-11    1.4142949962300967E-9    6.175517256125837E-10    4.048626267971125E-11    5.737415943346088E-11    8.724391425449724E-11    -8.439113980862043E-10   -1.2858988725403736E-9
3.35E-5                   -1.713922636142522E-10   -2.224024834925688E-11   1.81849495084393E-10     2.985554613144161E-10    2.060861752127996E-9     1.2056956857627296E-9    4.8184546036824326E-11   6.072896511027354E-11    8.659603719156473E-11    -1.2046203215404553E-9   -1.8052905892747628E-9
3.4E-5                    -1.3173454562713295E-10  9.259607419311735E-11    3.336222748426863E-10    5.599746246334653E-10    2.7622056687540626E-9    1.8780447408309016E-9    5.5965042631260896E-11   6.197084141493084E-11    8.065026227099526E-11    -1.600599192374455E-9    -2.3648645823191065E-9
3.45E-5                   -7.621790394371792E-11   2.3214434663293684E-10   5.036084205387426E-10    8.595133196303106E-10    3.501836738527478E-9     2.6243465658005047E-9    6.319697671798782E-11    5.987840247622618E-11    6.817534451812026E-11    -2.0202408158020724E-9   -2.9466349899325135E-9
3.5E-5                    -2.5111226973948385E-12  3.945810947607147E-10    6.892213077534887E-10    1.1865744671282926E-9    4.25469144238607E-9      3.423107013918676E-9     6.86391110657512E-11     5.3538405548325394E-11   4.853490878223954E-11    -2.4446393968422626E-9   -3.525831451244591E-9
3.5499999999999996E-5     9.035137285826843E-11    5.758175648246258E-10    8.866148157304517E-10    1.5312417769532048E-9    4.987526903569716E-9     4.245102416523653E-9     7.088593784767847E-11    4.2796771579716905E-11   2.185402762686414E-11    -2.851156834040249E-9    -4.07605444017983E-9
3.6E-5                    2.0130139027872374E-10   7.698998536972529E-10    1.0895566097718596E-9    1.8866398682105507E-9    5.662698279398087E-9     5.059595734511189E-9     6.923586822814328E-11    2.794494018708967E-11    -1.1249146687993031E-11  -3.2176473145630713E-9   -4.572028866024173E-9
3.65E-5                   3.2742753836910545E-10   9.703369570073268E-10    1.2893957954583692E-9    2.2436706745229837E-9    6.239848162198105E-9     5.833612078125277E-9     6.408097677127206E-11    9.00571615494815E-12     -5.0342851761965456E-11  -3.5247233573476514E-9   -4.9859059780296145E-9
3.7E-5                    4.6533291840356785E-10   1.1706171801504057E-9    1.4768872366363519E-9    2.585633511354348E-9     6.674881871501984E-9     6.526018756550991E-9     5.6227151616486116E-11   -1.4663219867309973E-11  -9.569020312936668E-11   -3.753697392089869E-9    -5.2832098230640586E-9
3.75E-5                   6.127492620849381E-10    1.36294087929662E-9      1.643498513123944E-9     2.8904023896449927E-9    6.9202620229943E-9       7.086668929872695E-9     4.5674221263114995E-11   -4.403089839290937E-11   -1.4790988172870495E-10  -3.882209131137924E-9    -5.4249689022930875E-9
3.7999999999999995E-5     7.684466893496123E-10    1.536691758739323E-9     1.780172070368978E-9     3.136876634567222E-9     6.928005947119084E-9     7.462599428735232E-9     3.1008636894078036E-11   -7.946751633493187E-11   -2.0688654416180955E-10  -3.883409099392534E-9    -5.373115717426429E-9
3.85E-5                   9.296066898661108E-10    1.6788779179782078E-9    1.8757487854272555E-9    3.3066684594813117E-9    6.652633245847356E-9     7.602697592273666E-9     1.0023997486239487E-11   -1.1993589548633204E-10  -2.7090615376597844E-10  -3.73076009413049E-9     -5.092870500653015E-9
3.9E-5                    1.0888066381207478E-9    1.7765295836908948E-9    1.9180885396001256E-9    3.379773537035577E-9     6.052446538104454E-9     7.456810741986524E-9     -1.8847393314175355E-11  -1.6316709653539327E-10  -3.3685334691042444E-10  -3.4033200606810886E-9   -4.552547487490675E-9
3.95E-5                   1.2340938628577145E-9    1.8187433368463758E-9    1.896255526836501E-9     3.3322727106271427E-9    5.090915871175363E-9     6.975878358748232E-9     -5.533514091994995E-11   -2.0694871890525782E-10  -4.01179884454492E-10    -2.8861964381825284E-9   -3.725284237650784E-9
3.9999999999999996E-5     1.3527759410677411E-9    1.7965556753913041E-9    1.800041711601457E-9     3.1409004155804646E-9    3.740007143699196E-9     6.1177490384108175E-9    -9.733287829305571E-11   -2.5036369285622756E-10  -4.605293722060048E-10   -2.1677057458716413E-9   -2.592827533301759E-9
4.0499999999999995E-5     1.4352332683707802E-9    1.7013435508931796E-9    1.6180529136976644E-9    2.7889444108957168E-9    1.9847307298308347E-9    4.852936753634106E-9     -1.4229854054701756E-10  -2.934672038612685E-10   -5.114219849653145E-10   -1.2386727563511338E-9   -1.1478080391226117E-9
4.1E-5                    1.4746646189467057E-9    1.5239461875511559E-9    1.339440935208979E-9     2.266607932975588E-9     -1.7326846585290673E-10  3.164046954848358E-9     -1.8902053032486417E-10  -3.3538490660720864E-10  -5.496884325847872E-10   -9.575598269959646E-11   6.0601647719886E-10
4.15E-5                   1.4631832619662422E-9    1.2555520747124078E-9    9.59406676367971E-10     1.5680776118513474E-9    -2.7144439795589154E-9   1.042853157990979E-9     -2.3804230965768546E-10  -3.727570894367693E-10   -5.707355936495623E-10   1.2542601323122107E-9    2.6524982416618953E-9
4.2E-5                    1.3888959030487553E-9    8.892409882849158E-10    4.817058597230467E-10    6.919551821317849E-10    -5.601708033849105E-9    -1.506896526141029E-9    -2.9005170284911756E-10  -4.0037032457200376E-10  -5.705614250007697E-10   2.7924443012664533E-9    4.959889437015591E-9
4.2499999999999996E-5     1.2376217904731966E-9    4.2086044161150906E-10   -8.57150157139521E-11    -3.5513169253111537E-10  -8.780080646593814E-9    -4.460980225701563E-9    -3.436615905778225E-10   -4.1343729842370947E-10  -5.462013512922282E-10   4.488133041882332E-9     7.478719452349517E-9
4.2999999999999995E-5     9.980513639458967E-10    -1.5021232002063688E-10  -7.361387554723123E-10   -1.5577375447861765E-9   -1.2174081739650884E-8   -7.7679601742374E-9      -3.948624623561558E-10   -4.0909180063709827E-10  -4.948752722800614E-10   6.300206491144814E-9     1.014295267645467E-8
4.35E-5                   6.658291894746808E-10    -8.191783187042488E-10   -1.4629034693936619E-9   -2.894748576984041E-9    -1.5684486776621586E-8   -1.134864915973565E-8    -4.3870437452633E-10     -3.8570587863786266E-10  -4.1297469035153225E-10  8.178041550393987E-9     1.2872279651358973E-8
4.4E-5                    2.4342674289750115E-10   -1.57360077738377E-9     -2.2534425242668045E-9   -4.340938443983882E-9    -1.9187946090662524E-8   -1.509940338009517E-8    -4.713304254558553E-10   -3.413212436788791E-10   -2.965334694026648E-10   1.0061629283337317E-8    1.557240156236051E-8
4.45E-5                   -2.6318429031578095E-10  -2.3932241936378042E-9   -3.087013360926033E-9    -5.864099053421647E-9    -2.2540759592702E-8      -1.8895489980721287E-8   -4.902666981454347E-10   -2.733549843688499E-10   -1.4297592261655628E-10  1.1881140867452278E-8    1.8134098312985712E-8
4.4999999999999996E-5     -8.474002341779502E-10   -3.2522741792072326E-9   -3.938521628552031E-9    -7.42162800465877E-9     -2.558447006461893E-8    -2.2593662649817368E-8   -4.930505546133254E-10   -1.798222204167297E-10   4.778104991533475E-11    1.3557578526616273E-8    2.043470928960309E-8
4.5499999999999995E-5     -1.5017739022200867E-9   -4.121881602985611E-9    -4.781910680345113E-9    -8.960294341802145E-9    -2.8150607383053226E-8   -2.6034663396402353E-8   -4.760692113643578E-10   -6.036062713843055E-11   2.738439057510292E-10    1.5006093896510966E-8    2.2343300524951845E-8
4.6E-5                    -2.2152093665613135E-9   -4.970652081542444E-9    -5.588572747640521E-9    -1.0418192668611157E-8   -3.006497938574537E-8    -2.904630091763445E-8    -4.3487441495645245E-10  8.41130535472415E-11     5.321210927726937E-10    1.6140837009063196E-8    2.3727070552309587E-8
4.65E-5                   -2.970037427398474E-9    -5.7639764259962976E-9   -6.3249634238514695E-9   -1.1727392492353163E-8   -3.115396815501483E-8    -3.144805691696484E-8    -3.6542636443488E-10     2.522633748781744E-10    8.176996988739447E-10    1.687831177744444E-8     2.445663715977088E-8
4.7E-5                    -3.7409839481005866E-9   -6.463701819070999E-9    -6.954599170664836E-9    -1.281803098203775E-8    -3.125363656692089E-8    -3.305784611632584E-8    -2.6506948335332595E-10  4.422208832440203E-10    1.1223693111093894E-9    1.7138680905942824E-8    2.441067043827008E-8
4.7499999999999996E-5     -4.496337522680011E-9    -7.0289145308224376E-9   -7.442115524972885E-9    -1.3623005929572791E-8   -3.0219446572491613E-8   -3.369981567518661E-8    -1.3286847068892674E-10  6.504447680502885E-10    1.4343865034794982E-9    1.684796125878709E-8     2.3481470567204914E-8
4.8E-5                    -5.200283917177338E-9    -7.41794376511695E-9     -7.7542635211059E-9      -1.4079935820570131E-8   -2.7934128829358247E-8   -3.321168548399106E-8    3.039415098692539E-11    8.709271753526436E-10    1.7401595995497513E-9    1.5942953550441903E-8    2.158157995765017E-8
4.85E-5                   -5.814999724312286E-9    -7.591355711518787E-9    -7.858913521208175E-9    -1.4130386362637E-8      -2.4313980570401468E-8   -3.1452393862070534E-8   2.225150221000588E-10    1.0956104952816777E-9    2.02605219303923E-9      1.4376782187088613E-8    1.865015604588458E-8