% Model:              Untitled.mph
% Version:            COMSOL 6.0.0.405
% Date:               Jul 16 2025, 09:37
% Dimension:          1
% Nodes:              401
% Expressions:        11
% Description:        Point graph
% Time (s)                Displacement field, Y component Displacement field, Y component Displacement field, Y component Displacement field, Y component Displacement field, Y component Displacement field, Y component Displacement field, Y component Displacement field, Y component Displacement field, Y component Displacement field, Y component Displacement field, Y component
0                         -3.6314425056615153E-37  6.36064432390609E-36     4.654130351062058E-35    1.783796824559373E-34    4.9239516330915415E-34   -8.395779493281405E-34   1.4027133603922713E-31   2.2696177241271513E-30   2.710740450422975E-30    -9.919944439522358E-33   -2.8628920610308407E-31
5.0E-7                    2.896170018988422E-29    -1.2820544045849195E-28  7.453003588499801E-27    -1.550110210844209E-26   -1.675157064482196E-26   1.5526270620341258E-25   -4.7848144363984784E-23  -2.5143633595335873E-22  -2.997578370480826E-22   1.1479591538966963E-24   1.4307100825705713E-23
1.0E-6                    2.786473144086674E-28    -6.7266406725318E-27     -1.346537800379925E-25   -9.704156742554108E-26   -6.183710525232131E-25   -6.368976177923824E-25   4.385767285788136E-22    -6.499581930063011E-22   -4.74983500800015E-22    1.954209534680392E-24    2.443141855395769E-22
1.5E-6                    -2.03836473101771E-27    3.665536698461241E-26    6.265486814901088E-25    7.542782316684446E-25    3.337431725668125E-24    1.8466947559383444E-24   -1.8119397633387974E-21  7.546914308950754E-21    4.906702552449439E-21    -1.6561661840885938E-23  -1.6679920799228104E-21
2.0E-6                    6.058862518802322E-27    -9.725511946581392E-26   -1.2959639929924048E-24  -2.340631019447849E-24   -5.077322537830392E-24   5.656875497296267E-24    2.1057298671396337E-21   -3.5856095008620806E-20  -1.9545161502220266E-20  4.1008062408850866E-23   5.815668040881802E-21
2.4999999999999998E-6     -5.661662340606542E-27   8.68370924864371E-26     -3.464348615917197E-25   2.3255606817464106E-24   -8.451623406337165E-24   -6.169497376315835E-23   1.0877763758748139E-20   1.0142368982421575E-19   5.753364913675078E-20    -5.465862147920064E-23   -1.1478731185417034E-20
3.0E-6                    -1.4377035096527918E-26  2.4381492633393593E-25   6.733930692438384E-24    4.348357774559142E-24    1.7271877233284724E-23   1.5946068211726334E-22   -3.7537079714242424E-20  -1.0190821213505843E-19  -1.26851790269446E-19    -3.9441683332919546E-23  2.610666081569244E-21
3.5E-6                    3.54005227601389E-26     -6.307212647254174E-25   -3.226157578676097E-24   -6.1669057393316065E-24  6.775111672672959E-23    9.882533576657199E-23    4.266319006329149E-20    -2.9445566489466755E-19  1.1891348956675154E-19   6.848869272999314E-23    4.122108585159607E-20
4.0E-6                    2.717939509850371E-26    -5.501726460655537E-25   -2.650778764330649E-23   -2.0410981642296656E-23  -7.394458541336264E-23   -1.201310761275174E-21   1.4863952567581551E-19   8.784663317607379E-19    4.964711688338958E-19    7.031342259702054E-23    -1.0412443238481102E-19
4.5E-6                    -1.1781932805000546E-25  2.3554846627319562E-24   -1.1343798813919343E-23  2.582677125399115E-24    -3.1555279576123736E-22  8.843478433305532E-22    -4.994623874868161E-19   -2.404397430593105E-21   -1.8523622280212857E-18  -1.3235313031131904E-21  7.235881425342438E-20
4.9999999999999996E-6     -1.298278593516661E-25   2.934426788195174E-24    1.164638163656266E-22    1.8829861724029123E-22   4.6211200590772735E-23   5.529949224833406E-21    -5.000760913354186E-19   -1.5448224298627254E-18  7.89531492857333E-19     3.2998329467508697E-21   5.835916820835068E-20
5.5E-6                    4.309380608921101E-25    -1.0895709458155237E-23  2.499141229848625E-22    -1.298807680170749E-22   5.599371792517331E-22    -8.110088892962748E-21   2.447945352054553E-18    6.286729631634077E-20    7.23059675167384E-18     1.3773571781452834E-20   -8.714233016242855E-19
6.0E-6                    3.4461770357482286E-25   -1.5952301685065084E-23  -3.165356711112174E-22   -1.0769645464628795E-21  2.7195172938754993E-21   -2.0899008834365343E-20  5.46912745634944E-18     -1.133225558442571E-18   -9.461285094225203E-18   -4.625981565302964E-20   6.970240626184238E-19
6.5E-6                    -8.009383983279301E-25   4.3772765518499423E-23   -1.8313229241719774E-21  1.3976872143175143E-21   4.714957656057285E-21    4.938810164565266E-20    9.186468400605831E-19    9.601331499063563E-18    -1.510771856261465E-17   -1.1689849402394922E-19  3.883903077607984E-19
7.0E-6                    1.0727182535324024E-24   7.357246321384825E-23    -7.498569763822054E-22   5.47919704603057E-21     -1.583708651284634E-20   7.386603542355191E-20    -2.131195274119263E-17   1.3180648016683609E-17   4.9400605790883805E-17   2.24793383726823E-19     -1.048384452200971E-17
7.499999999999999E-6      -5.293808728772619E-24   -1.3638530341464759E-22  8.43871575428724E-21     -7.10126426758481E-21    -4.84833312936543E-20    -2.19758963184634E-19    -3.669861203463347E-17   -4.420186616193049E-17   4.546832305416884E-17    5.608489000807975E-19    -1.550113111038862E-17
8.0E-6                    -2.193541984235422E-23   -3.334419006638714E-22   1.5052657467042212E-20   -2.579957699488714E-20   2.3386869413639895E-20   -1.8231868286148116E-19  6.510164050841086E-17    1.4809639412399653E-17   -1.1585396734932924E-16  -1.2148503655915338E-18  -2.1867583200118176E-17
8.5E-6                    5.799450351044724E-23    2.313614971991355E-22    -2.1824677658907836E-20  2.215062175036233E-20    2.490092763275038E-19    9.935650006701699E-19    2.9999531843987935E-16   2.219067477951237E-16    1.6623520456609175E-17   -4.2621517942075706E-18  -9.536363274520293E-17
9.0E-6                    1.825708413301329E-22    1.4482159926536198E-21   -9.927459844731377E-20   1.1322727023054333E-19   3.2573756048932667E-19   8.85476527596598E-19     3.1403704856970255E-16   -6.918669292588357E-17   6.696084319722205E-16    -9.486493168072146E-19   -2.6980070016057667E-16
9.499999999999999E-6      -3.154483665842435E-22   8.195882754077906E-22    -1.7852939029129624E-20  -8.81467067597836E-21    -3.3599737265011684E-19  -2.530850672326257E-18   -1.9939573802223506E-16  -3.6687466596181785E-16  8.264375023436539E-16    1.0133399797699807E-17   -7.257528115226982E-16
9.999999999999999E-6      -1.1968223288619366E-21  -5.282713775567445E-21   4.1105934175105014E-19   -3.7513100891311405E-19  -1.906380664489682E-18   -1.2031950634979713E-18  -6.976681656815911E-16   1.326783618772042E-15    3.31928479294807E-16     3.498712268228454E-18    -2.049273689965873E-15
1.05E-5                   9.13009029671069E-22     -1.094225031213762E-20   5.110538679114821E-19    -1.8682272810010388E-19  -1.775758343385239E-18   1.2798730725469045E-17   7.395269621730416E-17    3.052559786236981E-15    2.9348338847257266E-15   -6.452575855760644E-17   -4.861636189227132E-15
1.1E-5                    6.0928893833894376E-21   1.0577810640866158E-20   -1.0454957912317283E-18  1.1056471125525424E-18   6.274738934125734E-18    2.3983938807377853E-17   3.685938374370411E-15    7.523055325125669E-16    1.2379903642747757E-14   -1.8906561621542088E-16  -1.0600361565231754E-14
1.15E-5                   -8.306134454056327E-24   6.399875989770362E-20    -2.8559716400013617E-18  1.419722522091499E-18    1.8692780069576916E-17   1.5031882650576812E-17   1.0962098635314763E-14   1.8687287275128045E-15   2.4726572599545197E-14   -2.357133275425444E-16   -2.496162180190329E-14
1.2E-5                    -2.5477999527266753E-20  3.765478743629229E-20    7.211059511904307E-19    -1.968138055684116E-18   5.564223277352941E-18    2.5961699289278115E-17   1.6045180101449218E-14   1.6876150616505752E-14   3.787466506059307E-14    -1.2678509683836856E-16  -5.978011787328766E-14
1.2499999999999999E-5     -2.152279708251257E-20   -2.0614459304398925E-19  9.66130787699303E-18     -4.190126644365399E-18   -4.631354608135747E-17   1.5725827477901894E-16   4.8032302921533076E-15   3.2166714072147586E-14   8.13179903330358E-14     -4.799050133377393E-16   -1.319116422047862E-13
1.3E-5                    7.342104172556702E-20    -3.9778880017452154E-19  7.251823166053932E-18    5.6867073269831175E-18   -4.231973722565638E-17   5.018646269809702E-16    -1.7727654017326254E-14  4.008056440378387E-14    2.1553069150203615E-13   -2.6375442808242802E-15  -2.6694299227628937E-13
1.35E-5                   1.3885013680018013E-19   2.317341935363952E-19    -1.969344054003651E-17   2.055865024483149E-17    1.4931750299634648E-16   1.1059545117583916E-15   6.475845278814088E-15    9.636084283334083E-14    4.70831092018618E-13     -6.9320008264942995E-15  -5.11761170890567E-13
1.4E-5                    -1.2431381694551812E-19  1.6519119033430374E-18   -3.8112763613383213E-17  7.64855814235199E-18     3.9871814507797756E-16   2.098927754099436E-15    1.3662079781686328E-13   2.46923055773478E-13     8.385318575019288E-13    -1.22439410775514E-14    -9.560400483379808E-13
1.45E-5                   -5.997121908720206E-19   1.4770103792788136E-18   1.2593756054828258E-17   -3.015511951573892E-17   3.0198180394603746E-16   4.158883488846445E-15    2.9892392217057535E-13   4.1800094131939E-13      1.428210353709671E-12    -2.100023839161122E-14   -1.7537098795359997E-12
1.4999999999999999E-5     -2.6942025819754095E-19  -2.8792612217204376E-18  1.0757154256928152E-16   3.6693828931904834E-18   -8.288724667510491E-17   9.192521761383121E-15    2.9841050251401966E-13   6.041044841718038E-13    2.5718896326120178E-12   -4.270933957777359E-14   -3.0964609088597438E-12
1.55E-5                   1.5029009758901896E-18   -7.727278059697695E-18   8.640233028908941E-17    1.8999522636879038E-16   4.579083302550431E-16    2.057513569726786E-14    1.2721592889731026E-13   1.1544707678871531E-12   4.573671991485915E-12    -8.62736414876557E-14    -5.1684763782495275E-12
1.6E-5                    2.340188174549925E-18    -1.8029984799492584E-18  -1.5262756061863024E-16  3.84603707117368E-16     3.439358712915891E-15    4.271668553677538E-14    2.0799911764296372E-13   2.4412988125597846E-12   7.538117793596791E-12    -1.5843059177866023E-13  -8.360820646548403E-12
1.6499999999999998E-5     -2.1143175261077787E-18  1.9191165841763865E-17   -3.6701776615084315E-16  3.1206727963496034E-16   8.466009541067704E-15    8.147900785852534E-14    1.0265648475330364E-12   4.172363393556603E-12    1.2095080316273081E-11   -2.9102408952313085E-13  -1.3836853861557173E-11
1.7E-5                    -9.655235223793797E-18   3.318285261392895E-17    -6.298293815593465E-17   1.4705087791241696E-16   1.2915603469443447E-14   1.4831512731107498E-13   2.3928508909097196E-12   5.82998442023154E-12     2.0340413000875174E-11   -5.50977803098871E-13    -2.3597256576894723E-11
1.75E-5                   -5.807576015190892E-18   2.593350731978831E-18    8.316288636420182E-16    9.455709140265497E-16    1.7272534912623494E-14   2.68919143555982E-13     3.4151126865450058E-12   8.337740158599681E-12    3.47854043336232E-11     -9.669470178441869E-13   -3.903554645347095E-11
1.8E-5                    1.813168580678782E-17    -6.754754676500091E-17   1.3359737464087559E-15   3.921362837708745E-15    3.3281327573577097E-14   4.891678417236614E-13    3.6463768428763665E-12   1.44123320036366E-11     5.5175916032753417E-11   -1.478865220769107E-12   -5.893745134684045E-11
1.85E-5                   3.222803437051179E-17    -7.942270836081588E-17   2.320992206870375E-18    8.764529572845174E-15    8.198601628455466E-14    8.663731892266428E-13    4.182067854026418E-12    2.6040661938466072E-11   7.696698669908487E-11    -2.1364167953834356E-12  -7.945640573473382E-11
1.8999999999999998E-5     -1.638344287911441E-17   8.867076186321142E-17    -2.9439617125863553E-15  1.342648451962831E-14    1.751025058481369E-13    1.4583521761270281E-12   7.125789988909519E-12    4.191020912783997E-11    9.431967225020599E-11    -3.441181972575649E-12   -9.649789850158768E-11
1.95E-5                   -1.0840321588879512E-16  3.7900670154198244E-16   -3.964037032029396E-15   1.7971660724938366E-14   3.0519516007950513E-13   2.3686969215847474E-12   1.3728404464193765E-11   5.852769294138125E-11    1.0427190026708574E-10   -6.258019088827791E-12   -1.0770529361028393E-10
1.9999999999999998E-5     -1.0560006537594647E-16  4.683104505530374E-16    1.4722497415663512E-15   3.041843491943557E-14    4.817253871356384E-13    3.879432619773423E-12    2.3294650768918502E-11   7.368494526808933E-11    1.0645911657972016E-10   -1.1014974882327448E-11  -1.1205419531231727E-10
2.05E-5                   7.710016162566571E-17    1.2342134920558346E-16   1.260036994229314E-14    6.70655270243777E-14     7.907484714068721E-13    6.5400867329108985E-12   3.4057028265305464E-11   8.731455238573285E-11    9.924553635273321E-11    -1.6934953912038942E-11  -1.0841316635889243E-10
2.1E-5                    2.212253081876037E-16    -2.3251085929828574E-16  2.009952639177106E-14    1.438557932456862E-13    1.3967209871837128E-12   1.0966032307274658E-11   4.466565281169803E-11    9.863912573209793E-11    7.898354061252737E-11    -2.2366162569043907E-11  -9.476948650113628E-11
2.1499999999999997E-5     -8.192066252917624E-17   4.066679373897838E-16    1.3693041793387722E-14   2.685994246002401E-13    2.4769719749502953E-12   1.7316141669177635E-11   5.423385177623064E-11    1.0413709118653279E-10   4.442101114741755E-11    -2.607903162202568E-11   -6.810434090677525E-11
2.2E-5                    -8.935603727941398E-16   2.7477776556864217E-15   -3.1780181688423062E-15  4.4779943314645675E-13   4.206616435478343E-12    2.485867386601179E-11    6.11050928232748E-11     9.950177838624778E-11    -4.432262058040868E-13   -2.8065466830402435E-11  -2.53979008410742E-11
2.2499999999999998E-5     -1.683403629728012E-15   6.786298435279355E-15    -7.708367665883678E-15   7.081519630069629E-13    6.834343294349785E-12    3.211638068893482E-11    6.256688589262548E-11    8.264973322931508E-11    -5.046764178658352E-11   -2.8821000153509318E-11  3.3672041050738684E-11
2.3E-5                    -2.0021134806318072E-15  1.2490223249218657E-14   2.9329427934587895E-14   1.124976776024789E-12    1.0644614556848714E-11   3.7534880863150366E-11   5.6488619965756805E-11   5.3395058621691366E-11   -1.0563888267809706E-10  -2.7955865578746034E-11  1.0531099805297393E-10
2.35E-5                   -2.5372724395813545E-15  1.996005580405455E-14    1.2432010617035224E-13   1.855845410643858E-12    1.5640809722260257E-11   4.0034957747036985E-11   4.279092448690635E-11    1.0590082704394114E-11   -1.7111716209027167E-10  -2.3922030589070374E-11  1.8508355781631456E-10
2.4E-5                    -5.483067325186191E-15   2.9473633788181496E-14   2.756735659481237E-13    3.1527301525696755E-12   2.1234966176623932E-11   3.8947010611515593E-11   2.2311333317761373E-11   -4.8586011933883236E-11  -2.5129526233900474E-10  -1.536416954318089E-11   2.730738901106005E-10
2.45E-5                   -1.4116634934615567E-14  4.7095195183206095E-14   4.766182952181566E-13    5.271464032236191E-12    2.643972115901677E-11    3.354380700829173E-11    -5.810053117351089E-12   -1.2545176492062426E-10  -3.456526425734358E-10   -2.575457860657834E-12   3.734656770355376E-10
2.4999999999999998E-5     -3.239949101145028E-14   9.561593015354677E-14    7.373849684784697E-13    8.248296424661459E-12    3.0501699363415026E-11   2.2822303226321566E-11   -4.430827588821584E-11   -2.16555449132268E-10    -4.499851841648673E-10   1.2736904574423097E-11   4.885279083903834E-10
2.55E-5                   -6.53884920955638E-14    2.1247500602463268E-13   1.1201135220465746E-12   1.1730188095986146E-11   3.3229023501508687E-11   5.875375513647014E-12    -9.413650227877481E-11   -3.1492466004314916E-10  -5.589725094052752E-10   2.923835892992981E-11    6.147709235427953E-10
2.6E-5                    -1.2172677367772562E-13  4.2221037034286454E-13   1.788779767009883E-12    1.5141156821963252E-11   3.450574875832105E-11    -1.7460865851940576E-11  -1.5091856273792275E-10  -4.1551062258586065E-10  -6.668530011887953E-10   4.7321981077210807E-11   7.450588047851526E-10
2.65E-5                   -2.2010699268603893E-13  7.230362868760564E-13    3.026466667611472E-12    1.8112920541789053E-11   3.349635661390855E-11    -4.6311904001587037E-11  -2.0649376975125893E-10  -5.194787036158775E-10   -7.682012176877573E-10   6.857677743355802E-11    8.723986970436199E-10
2.7E-5                    -3.9862567146153275E-13  1.1537249612457727E-12   5.133011034271888E-12    2.062693780603696E-11    2.8519437246005395E-11   -7.911102980965721E-11   -2.550489316031224E-10   -6.324369856099524E-10   -8.6007050661017E-10     9.411618115153496E-11    9.913328900286368E-10
2.7499999999999998E-5     -7.201404803415296E-13   1.9056888100552797E-12   8.192294915915014E-12    2.2514527302599852E-11   1.7856659684265785E-11   -1.1422581807666295E-10  -2.976830510953411E-10   -7.573461610777535E-10   -9.4221608804087E-10     1.236019201366026E-10    1.0973546350200314E-9
2.8E-5                    -1.2659857681318684E-12  3.287255561226347E-12    1.186322141998994E-11    2.2866152919298033E-11   7.203236443693056E-13    -1.5031170721423684E-10  -3.405123657367368E-10   -8.881193630778497E-10   -1.013038813023607E-9    1.5564702439507365E-10   1.1851125079294555E-9
2.8499999999999998E-5     -2.1163411794146784E-12  5.3985250301094506E-12   1.5408124409032707E-11   2.0285597317248215E-11   -2.257589357449693E-11   -1.8637675282686847E-10  -3.8827173010407824E-10  -1.0095839969291283E-9   -1.0646120432400889E-9   1.886920037301252E-10    1.2456313401367614E-9
2.9E-5                    -3.31774141524123E-12    7.734681603299061E-12    1.7995888919856152E-11   1.3954115270565909E-11   -5.136926868298372E-11   -2.219220322450844E-10   -4.398373702610192E-10   -1.1038885562719377E-9   -1.0820578043344835E-9   2.2133213880871766E-10   1.2652791072444159E-9
2.95E-5                   -4.835836874838506E-12   9.221826421804172E-12    1.9046999628874902E-11   4.2775264115684365E-12   -8.549927829792128E-11   -2.5692925840859365E-10  -4.894550398844472E-10   -1.1578835151655957E-9   -1.048333290922776E-9    2.5206045872549023E-10   1.2289899476068295E-9
2.9999999999999997E-5     -6.505493082208887E-12   8.895035309184966E-12    1.8316242076524553E-11   -7.749733173120949E-12   -1.253197533427558E-10   -2.908972073768418E-10   -5.312933976958397E-10   -1.1654394037109509E-9   -9.505784684931843E-10   2.790066791535432E-10    1.1249013539339191E-9
3.05E-5                   -8.024119715244391E-12   6.689488816301788E-12    1.564335641048215E-11    -2.1725174259807716E-11  -1.708027564699089E-10   -3.211774484526333E-10   -5.620800832797615E-10   -1.123411315142836E-9    -7.828665809977074E-10   3.000298074986512E-10    9.452313920804885E-10
3.1E-5                    -9.036571817693736E-12   3.4942787260086074E-12   1.063155099633562E-11    -3.8180048397810853E-11  -2.2061099126312348E-10  -3.4259059038510375E-10  -5.793722442325181E-10   -1.025688440975087E-9    -5.431021909459954E-10   3.1300812049582626E-10   6.830643294453166E-10
3.15E-5                   -9.282841603325621E-12   2.855676392597158E-13    2.618206729774156E-12    -5.7880821461770385E-11  -2.719445053553658E-10   -3.497706867197186E-10   -5.778351033474016E-10   -8.611721348147106E-10   -2.2735987300244566E-10  3.1590454930175386E-10   3.295898334870538E-10
3.2E-5                    -8.681929930743194E-12   -2.818336206016956E-12   -8.945115550671856E-12   -8.111365546057291E-11   -3.2101172547405777E-10  -3.405425656150613E-10   -5.477966287837364E-10   -6.172641724232498E-10   1.7166573667743172E-10   3.0641910101401593E-10   -1.2472458495922205E-10
3.25E-5                   -7.245092070366323E-12   -6.589720324999584E-12   -2.3995289400606895E-11  -1.0759669893812001E-10  -3.634812724722876E-10   -3.1664301597811667E-10  -4.778572973437156E-10   -2.8499995689660676E-10  6.593182504246044E-10    2.816488279526503E-10    -6.857605216342983E-10
3.2999999999999996E-5     -4.8793322311798E-12     -1.1832205412035784E-11  -4.172661337824774E-11   -1.3662203395281825E-10  -3.948550231460968E-10   -2.802861919260502E-10   -3.5930139352021504E-10  1.3890096167656417E-10   1.2322089264534088E-9    2.384420912457381E-10    -1.3515547358865054E-9
3.35E-5                   -1.2826159807600342E-12  -1.864779452098442E-11   -6.102957890379372E-11   -1.6704633951679352E-10  -4.111982045894451E-10   -2.294537981129392E-10   -1.8856231804605594E-10  6.537085282359379E-10    1.8777792664265086E-9    1.7444987525908909E-10   -2.1112584909542973E-9
3.4E-5                    3.942270961789446E-12    -2.6608737419945593E-11  -8.112606080128122E-11   -1.9744968613212927E-10  -4.100071431731646E-10   -1.5665733758690733E-10  3.3657083616514473E-11   1.2568652102721075E-9    2.5802032636368157E-9    8.888889633489758E-11    -2.947317926510706E-9
3.45E-5                   1.1052944594113688E-11   -3.543028654617713E-11   -1.0172215702264964E-10  -2.2658734846552338E-10  -3.902059082700517E-10   -5.312392942984412E-11   3.0458818664858126E-10   1.9437527211344593E-9    3.324420472860101E-9     -1.7884001379124533E-11  -3.838017477099298E-9
3.5E-5                    2.0019768368776153E-11   -4.511114822155564E-11   -1.2239703717185093E-10  -2.533792518400132E-10   -3.5092627026837454E-10  8.478375295474785E-11    6.201793560249419E-10    2.7050391369539863E-9    4.092595175464827E-9     -1.4557066489395755E-10  -4.757728923262101E-9
3.5499999999999996E-5     3.05515836909725E-11     -5.5249491242130067E-11  -1.417729944974486E-10   -2.758945436913667E-10   -2.9019502444758315E-10  2.5285931042516615E-10   9.741098448532123E-10    3.523642460277869E-9     4.857308780103282E-9     -2.944791842639309E-10   -5.6750659637202544E-9
3.6E-5                    4.220907318065E-11       -6.443161859198008E-11   -1.574104365681113E-10   -2.902766625733247E-10   -2.0479937386884906E-10  4.4307494073686814E-10   1.3569644686811063E-9    4.373403138086337E-9     5.579774524302794E-9     -4.646009580055021E-10   -6.551084414405171E-9
3.65E-5                   5.4502990024193294E-11   -7.068955959797557E-11   -1.6677985867386995E-10  -2.911959263436001E-10   -9.119080330150214E-11   6.506419306222254E-10    1.756982075431555E-9     5.220339001416884E-9     6.214673727240402E-9     -6.539887154450178E-10   -7.339235231051877E-9
3.7E-5                    6.695382128090848E-11    -7.280618423570438E-11   -1.685531144012195E-10   -2.739414010010009E-10   5.3612947210523926E-11   8.76700927376656E-10     2.1615780859133083E-9    6.025364152376849E-9     6.715984926668541E-9     -8.579733052918681E-10   -7.987273132265818E-9
3.75E-5                   7.909301124038983E-11    -7.113610831212037E-11   -1.6298021954434093E-10  -2.3632537290136387E-10  2.315027652077856E-10    1.1232880488425391E-9    2.5578919804808263E-9    6.745789789529857E-9     7.039428423707295E-9     -1.0698388802678155E-9   -8.439818281643873E-9
3.7999999999999995E-5     9.035411554542442E-11    -6.69831100757431E-11    -1.508870352200575E-10   -1.785665533644381E-10   4.427183858450623E-10    1.3852430977000113E-9    2.9318076135775697E-9    7.334023402437777E-9     7.142567272964999E-9     -1.2820207440925078E-9   -8.639838118540497E-9
3.85E-5                   9.990987286376009E-11    -6.107264826555596E-11   -1.321589191827692E-10   -1.0128834438051928E-10  6.852356477711144E-10    1.646868747707092E-9     3.2664635815192513E-9    7.735530483460788E-9     6.984872627509595E-9     -1.4864557673273154E-9   -8.529171525502602E-9
3.9E-5                    1.0667995746693319E-10   -5.258929544491623E-11   -1.0512607806718869E-10  -3.592556906534091E-12   9.547102418502636E-10    1.8861479667591514E-9    3.5415335277242285E-9    7.890184260283974E-9     6.527859877549184E-9     -1.673848052542428E-9    -8.050558499692668E-9
3.95E-5                   1.0964033458358988E-10   -3.959650127810717E-11   -6.744343693219121E-11   1.1691055442677968E-10   1.245092532909711E-9     2.0822086341579213E-9    3.733713757286392E-9     7.738327041857185E-9     5.735351912909795E-9     -1.8328988725612319E-9   -7.152736455209375E-9
3.9999999999999996E-5     1.0817243153150639E-10   -2.023762592069701E-11   -1.7643831087442333E-11  2.6207515620559885E-10   1.5490003611093456E-9    2.219862781925656E-9     3.8180363297194544E-9    7.227994446763449E-9     4.575777503017453E-9     -1.9504748043120707E-9   -5.7966484372177916E-9
4.0499999999999995E-5     1.0198425713276624E-10   6.4833502505694944E-12   4.4095465032048306E-11   4.310894781330889E-10    1.8569388255300539E-9    2.2888470244961865E-9    3.769405615934964E-9     6.31867432213207E-9      3.0275889167572035E-9    -2.012573107087479E-9    -3.95955613060408E-9
4.1E-5                    9.052127638562946E-11    4.084189615380906E-11    1.1668001860713253E-10   6.20283991786027E-10     2.1556525243567265E-9    2.27982718143029E-9      3.563988347251156E-9     4.980960927997435E-9     1.0854194160139151E-9    -2.005357434789154E-9    -1.6363460555516827E-9
4.15E-5                   7.241126086003513E-11    8.292749365946102E-11    1.995737986631975E-10    8.248605789841377E-10    2.426965616494237E-9     2.180771101399868E-9     3.1804442019405896E-9    3.1956805528516858E-9    -1.236601619586252E-9    -1.9160020115945135E-9   1.1601339911133123E-9
4.2E-5                    4.557150412368455E-11    1.3278389396850788E-10   2.934825232103095E-10    1.0402481666791382E-9    2.6483538458494255E-9    1.9762894625059777E-9    2.601240906174993E-9     9.558862471500267E-10    -3.905004540900984E-9    -1.733572159641167E-9    4.397811886100635E-9
4.2499999999999996E-5     7.96297613693027E-12     1.8991679183934287E-10   3.9936466000042024E-10   1.2610369993637535E-9    2.795336966247567E-9     1.6504469928738594E-9    1.8143369864385772E-9    -1.7285561249460321E-9   -6.868193517735149E-9    -1.4499923632990881E-9   8.022683615687413E-9
4.2999999999999995E-5     -4.16632636897871E-11    2.525875673715356E-10    5.164535437065548E-10    1.4783165354165933E-9    2.8444951126074914E-9    1.1912773955798825E-9    8.152866467938083E-10    -4.826697451883562E-9    -1.005705676913295E-8    -1.0608901681741985E-9   1.1955812190234198E-8
4.35E-5                   -1.035750005488526E-10   3.1753333955517616E-10   6.409436473947862E-10    1.678470159602531E-9     2.7754966211252696E-9    5.941517548770906E-10    -3.9062429169981146E-10  -8.28442248834051E-9     -1.3385695304806239E-8   -5.662142494201185E-10   1.609244760082198E-8
4.4E-5                    -1.7730461106996682E-10  3.8047767258424735E-10   7.66363972603814E-10     1.8452156852400698E-9    2.5713802713713224E-9    -1.3751889687264144E-10  -1.7869734510590982E-9   -1.202363828955169E-8    -1.6752530191756762E-8   2.9457945920848197E-11   2.0304654409942742E-8
4.45E-5                   -2.6181197932727947E-10  4.372121079479467E-10    8.8505027721555E-10      1.9632331574799344E-9    2.2177796354221648E-9    -9.932388283281068E-10   -3.3461502302387347E-9   -1.5941034128835688E-8   -2.0040032033069615E-8   7.172016963252713E-10    2.444542246551521E-8
4.4999999999999996E-5     -3.552985410011988E-10   4.844978510368698E-10    9.89223351138185E-10     2.020068944646651E-9     1.702532920345026E-9     -1.9562132098749367E-9   -5.030577093430232E-9    -1.990687417403699E-8    -2.3113166403067768E-8   1.484575148223615E-9     2.835072628898658E-8
4.5499999999999995E-5     -4.548829645491013E-10   5.20061575487361E-10     1.0708935904264574E-9    2.004937383018754E-9     1.0166125260688417E-9    -3.003578797756122E-9    -6.794426501373375E-9    -2.3766329427064263E-8   -2.5821253678076458E-8   2.3161827209574387E-9    3.1839479344563674E-8
4.6E-5                    -5.564833912472179E-10   5.417104326133835E-10    1.1212522819386748E-9    1.9062441881046985E-9    1.561942797832101E-10    -4.106748795690149E-9    -8.58492701066429E-9     -2.7344738741686914E-8   -2.800703465390472E-8    3.193213652351204E-9     3.471579567898381E-8
4.65E-5                   -6.550232459641298E-10   5.464361170067129E-10    1.1307664253923331E-9    1.7107416415070307E-9    -8.750262315671267E-10   -5.2316736536955885E-9   -1.0342760658922094E-8   -3.045508521539581E-8    -2.9518916278943045E-8   4.092401614315731E-9     3.6777218409321375E-8
4.7E-5                    -7.448308749673531E-10   5.303650372421701E-10    1.0903893590935871E-9    1.4054387432545684E-9    -2.064120293490265E-9    -6.338078430579379E-9    -1.2001716709318732E-8   -3.290484624695553E-8    -3.021825647937067E-8    4.985606179698043E-9     3.7827244595447906E-8
4.7499999999999996E-5     -8.200140756601117E-10   4.894569846209818E-10    9.931615552560456E-10    9.8085398934326E-10      -3.3881473539672274E-9   -7.378086711369687E-9    -1.348852272878317E-8    -3.450165737179718E-8    -2.99799854171274E-8     5.84046741920943E-9      3.7687202171276835E-8
4.8E-5                    -8.746192957726673E-10   4.200544305095172E-10    8.351780861242184E-10    4.333220464989463E-10    -4.814069611409234E-9    -8.296396239782804E-9    -1.472416679914663E-8    -3.505992910230417E-8    -2.8693247290654893E-8   6.621519972550907E-9     3.6204774943290704E-8
4.85E-5                   -9.025399553289931E-10   3.187535818165284E-10    6.155251715433837E-10    -2.3470548699213516E-10  -6.2988845230485575E-9   -9.033581014029854E-9    -1.5627327617226496E-8   -3.4410259386742454E-8   -2.6267906241235172E-8   7.291178290619235E-9     3.326060754367616E-8