% Model:              Untitled.mph
% Version:            COMSOL 6.0.0.405
% Date:               Jul 16 2025, 14:09
% Dimension:          1
% Nodes:              401
% Expressions:        11
% Description:        Point graph
% Time (s)                Displacement field, Y component Displacement field, Y component Displacement field, Y component Displacement field, Y component Displacement field, Y component Displacement field, Y component Displacement field, Y component Displacement field, Y component Displacement field, Y component Displacement field, Y component Displacement field, Y component
0                         2.096919934349195E-32    2.5417528797266813E-31   7.681420781907844E-32    9.522024412438354E-34    1.4141248931033303E-34   1.624414719484869E-37    -5.3536872069245284E-39  3.6456109817336466E-38   -3.3413831504343116E-39  -8.824418512539332E-34   -2.388475224938793E-35
5.0E-7                    -1.2542424207264465E-23  4.3816329686617703E-23   -9.534716774112512E-24   -1.1113541469304198E-25  7.151667859119951E-26    1.9471553759869317E-29   -4.949212239113329E-30   -1.5395792784510856E-29  -8.46241927752422E-30    1.2537888797244667E-25   2.054964370028044E-27
1.0E-6                    1.4636753518404006E-23   -4.422197289031614E-22   -5.765747613713733E-24   2.6291156072336237E-24   -3.5586457036337155E-25  -8.084412303363528E-29   2.644826896809731E-29    1.3066970364098446E-29   -7.023006433749322E-30   -3.5787540962741306E-26  1.76995661122562E-26
1.5E-6                    1.7061047504221628E-22   4.994174765705913E-22    1.2632052144543433E-22   -7.299947721660998E-24   6.597410998108347E-25    -2.0385709998473154E-28  -6.30533499266457E-29    3.5645053054628534E-28   3.616950502022663E-28    -1.6781365037615384E-24  -1.581192965971222E-25
2.0E-6                    9.866028065283934E-22    6.595889717050336E-22    -6.4588328463179135E-22  6.68404419799612E-24     -4.3890496045484536E-24  -1.4794426947729694E-27  5.884352209146899E-29    -1.1049720324485246E-27  -2.0028530848308303E-28  7.260326407063367E-24    6.870749881000009E-25
2.4999999999999998E-6     -2.2202767695482347E-21  3.0552617770939688E-21   6.348232379216983E-24    -8.380705204164677E-23   9.607535350413723E-24    6.728506724471555E-27    1.128887858047142E-27    -1.82205879488584E-28    -2.917818361626909E-27   -9.803152006010906E-24   -1.552279911437193E-24
3.0E-6                    -2.0130972738168212E-20  -6.83070563127402E-21    1.2826946154720302E-21   2.3758812019740263E-22   8.240045863555025E-23    3.9406374402171965E-26   -3.755107752872111E-27   3.1468241549208086E-27   -5.002578116285244E-28   -5.0949862053865594E-26  -5.852368827103934E-25
3.5E-6                    3.049368551257055E-20    2.8738291527908945E-21   5.598154053413678E-21    9.186010349833122E-22    -1.2510594943423893E-22  -7.711471718680167E-26   -4.44916116061299E-28    4.000366939477922E-27    1.6211782171055582E-26   1.6058523825517044E-23   1.2454170700946462E-23
4.0E-6                    1.172877669947027E-19    -8.384539101366922E-20   5.450951012047177E-21    -2.5023830829236137E-21  -6.7883516067834445E-22  -4.161135809500097E-25   -7.869447974414571E-27   -9.378647782334688E-27   1.667421205358604E-26    -1.6688572344923387E-22  -2.081374761757642E-23
4.5E-6                    -7.379806347762896E-20   1.0125278854689426E-19   -1.8758162940902315E-20  -5.90897657502647E-21    4.307615382828001E-22    4.033688981829912E-25    1.3463884580647294E-26   -7.926581982618354E-26   -7.037276401586144E-26   2.209196386666049E-22    -3.5185505808991114E-23
4.9999999999999996E-6     -3.9834753867218954E-19  9.420990929049703E-19    -4.5482056406442156E-20  1.3266292831828734E-20   3.044106058826141E-21    2.0054650711825028E-24   2.4645827350942786E-25   1.1591152994302691E-25   -1.0205643537863713E-25  1.4218108019156574E-21   1.8522011051539898E-22
5.5E-6                    -5.329708882973046E-19   -1.117268415533088E-18   1.2910744458496238E-19   3.138664897236295E-20    1.4277418238184852E-21   8.648854998960038E-25    -2.6060962547304017E-25  5.87353771196096E-25     2.1914393055959564E-25   -1.8126392683764083E-21  -5.812918292972863E-23
6.0E-6                    8.31985295413113E-19     -4.50815735289619E-18    1.9558819598406736E-19   -1.4146460638926623E-20  -7.502569434345316E-21   7.260705829483387E-26    -6.724453716898788E-25   -1.2488607915435612E-24  3.225171936666775E-25    -7.716776141036956E-21   -1.1096397311668625E-21
6.5E-6                    5.7371799325600504E-18   4.726010433907063E-18    -1.3386094999137325E-18  -5.0113391078457637E-20  -1.8186870257912972E-20  -2.2871657357957894E-23  3.0274751005310417E-24   -3.782623825799945E-24   -5.712529535987926E-25   7.786904829874623E-21    1.0083690027345421E-21
7.0E-6                    2.3120310236597566E-18   1.5249075708698082E-17   -1.3363019726199258E-18  -1.2299026152688024E-19  1.507663812808642E-20    -8.941823842535393E-23   -8.063583052062898E-24   7.251821925688004E-24    -2.415255726438017E-25   3.2757801703374887E-20   5.742715486482767E-21
7.499999999999999E-6      -2.5861417808682998E-17  -6.4329673402875185E-18  7.381035626504878E-18    -3.1574922792785942E-19  1.1659897196767554E-19   1.3123032435389025E-22   -3.526523531095105E-23   2.0079467876568E-23      4.103438741798791E-24    -2.5559397114681602E-20  -4.697447710600872E-21
8.0E-6                    -2.4450212272119202E-17  -2.8456747529546395E-17  9.616680405480466E-18    7.274232610176206E-19    2.840422325354069E-20    9.151130979684457E-22    1.054926293352492E-22    -2.9221743811479276E-23  5.3812431552731466E-24   -1.4623299897079443E-19  -2.7187163714246855E-20
8.5E-6                    1.0604705591603498E-16   2.956591562723477E-18    -1.897845921204728E-17   2.7873006725173564E-18   -3.867475941521213E-19   -3.325384858836743E-23   3.907229519759986E-22    -8.93556582353308E-23    -1.9048865278623566E-23  7.979639549965788E-21    9.022822986364264E-21
9.0E-6                    2.2571169683729064E-16   6.203874294371859E-17    -2.853991791574578E-17   -1.0606202141182726E-18  -2.381581329226362E-19   -5.465769852890907E-21   -4.846412692421246E-22   7.630034638993794E-23    -8.289495186185719E-23   5.922126815781662E-19    1.1406735023186188E-19
9.499999999999999E-6      -7.930723753707501E-17   1.7250344476688745E-16   4.5897308202603115E-17   -8.260289190657741E-18   9.447481201533872E-19    -3.993276855450066E-21   -2.8581586107516592E-21  2.9161828174993457E-22   -3.686504748346563E-23   5.610423953158741E-19    3.383335676041084E-20
9.999999999999999E-6      -5.538446772416781E-16   3.567046428472565E-16    9.993894983875256E-17    6.904405287622495E-18    1.6476073567544604E-18   2.605725685562166E-20    6.075567461904252E-22    -1.8026235710483954E-22  5.488677389083323E-22    -1.6903653188199836E-18  -4.0714401685747286E-19
1.05E-5                   5.252527868264052E-16    4.736756676974833E-16    9.543888790998014E-17    3.8926208409164076E-17   2.084576556070451E-18    5.0652206929145965E-20   1.638757450756651E-20    -8.017107731574677E-22   1.1754620674907343E-21   -4.5309963748584195E-18  -4.681173255113965E-19
1.1E-5                    4.3045406765787325E-15   1.034478219123186E-15    3.8886548113225346E-16   3.207769920264011E-17    3.6173350004431355E-18   -3.873727016709634E-20   1.4591653330530505E-20   3.814090455643588E-22    -1.5815896649021804E-21  -9.88221525552601E-19    8.852374260696713E-19
1.15E-5                   7.929130620761804E-15    3.590148594470503E-15    9.451183996175044E-16    4.2437434796031383E-17   3.169903017476918E-18    -1.8288956227707972E-19  -5.1641861902854415E-20  1.770753059485263E-21    -8.121384585538613E-21   1.235790345337972E-17    2.144446831907467E-18
1.2E-5                    7.64917558140683E-15     8.963200542116564E-15    1.046871188231231E-15    2.650416845672474E-16    1.7073656625410712E-17   8.975147951356221E-20    -8.806842591090779E-20   -7.861651065075307E-22   -1.1343545761998485E-21  1.7801838115223012E-17   -8.029963112255548E-19
1.2499999999999999E-5     1.1308701868586983E-14   1.8682305082481445E-14   2.4051626540134897E-15   7.078865423229522E-16    1.0594477179654446E-16   1.1094578728279756E-18   1.650377033899603E-19    -7.475610074804229E-22   3.492659152047729E-20    -2.208184885849203E-17   -7.95522857237152E-18
1.3E-5                    4.650666272299846E-14    4.225314106054303E-14    1.0936361886233389E-14   1.3936183106544935E-15   2.9983462455467154E-16   2.0073596379889007E-18   5.990459989187994E-19    1.322013518166199E-20    3.830821723782307E-20    -1.145512183695781E-16   -1.1039093661716319E-17
1.35E-5                   1.4524714993768535E-13   9.711321843903232E-14    3.0549768964242106E-14   3.3894983520164238E-15   5.679955911489982E-16    1.535626947716228E-18    3.50429780699689E-19     2.77854055521827E-20     -9.854097721598877E-20   -1.77632226285563E-16    -3.6530501793515034E-18
1.4E-5                    3.12349621458622E-13     1.9986894966493423E-13   6.006913480076939E-14    8.836403503488582E-15    1.1909746573197649E-15   1.898777125523107E-18    -7.471376557308378E-19   4.871656285730296E-20    -2.360524686446783E-19   -1.1093442092671073E-16  2.96338668849173E-18
1.45E-5                   5.393408512466041E-13    3.8410549317542506E-13   1.0954783356081662E-13   2.030668961575471E-14    3.2662055488827606E-15   1.1427187208874844E-17   1.6543183068972333E-21   1.8898892841252048E-19   7.914130262933008E-20    -7.978617568877949E-17   -2.852332002272241E-17
1.4999999999999999E-5     9.34337902330684E-13     7.576199252071619E-13    2.2238850298414728E-13   4.3768184077715615E-14   8.560223321460317E-15    4.0505536225009355E-17   5.979678220589848E-18    4.5961619063949455E-19   7.326887010056869E-19    -7.715077658253378E-16   -1.66440776685008E-16
1.55E-5                   1.876731459324259E-12    1.5320885096826965E-12   4.826577030907585E-13    9.415931897605792E-14    1.9549354587633367E-14   9.424421929270291E-17    1.5020556998532758E-17   4.884641023226641E-19    3.4531152256558885E-19   -3.1371958755808522E-15  -4.8716016002680735E-16
1.6E-5                    3.901337664462501E-12    2.969876594703048E-12    1.0226965316550359E-12   1.979235199807556E-13    4.2302391420130486E-14   1.7878950824839282E-16   2.1154250657910878E-17   7.292495505982987E-19    -1.6016375690446193E-18  -7.675275892541343E-15   -1.0027407967645022E-15
1.6499999999999998E-5     7.283024647152921E-12    5.333606550179651E-12    2.031620364146356E-12    4.018233579197633E-13    9.201253859355985E-14    3.395728856871218E-16    3.078762821932123E-17    4.7650323881941276E-18   -1.6073276575917281E-18  -1.470455251342586E-14   -1.757632291626469E-15
1.7E-5                    1.2023093733611734E-11   8.997547414460047E-12    3.730597438014301E-12    8.021659418798386E-13    1.9711123714574782E-13   7.261080471142748E-16    7.465882636808766E-17    1.6144846726241875E-17   4.034656008221244E-18    -2.761902813319323E-14   -3.48968399584871E-15
1.75E-5                   1.881899459279708E-11    1.4721552081072572E-11   6.395706904977684E-12    1.5681652884824326E-12   4.0406209055398666E-13   1.6489579302407945E-15   1.9593465246047332E-16   2.7503076752026477E-17   8.555710594051184E-18    -5.845863737857383E-14   -8.561281027912417E-15
1.8E-5                    2.9845938206609134E-11   2.3751984860687745E-11   1.0584520918232673E-11   2.9221405900326096E-12   7.943985521937419E-13    3.6238858808454425E-15   4.343783069671561E-16    2.5657053243503484E-17   -2.655580295819403E-18   -1.3089164091795906E-13  -2.0899397315814423E-14
1.85E-5                   4.7157815928262847E-11   3.718530794032811E-11    1.7321326463344142E-11   5.132150802176871E-12    1.5115468288420812E-12   7.507731548063245E-15    8.472396781603551E-16    4.008236941493633E-17    -2.3515857183343308E-17  -2.7788307598023193E-13  -4.5114543312637036E-14
1.8999999999999998E-5     6.92484335454329E-11     5.4486365859628374E-11   2.7533004209698835E-11   8.606935614803177E-12    2.76568573710172E-12     1.494663181108461E-14    1.5836544970274078E-15   1.7875242573137457E-16   -1.1945791402411899E-17  -5.4362269596343E-13     -8.881178841969111E-14
1.95E-5                   9.022827543762096E-11    7.236764412071296E-11    4.067822250473523E-11    1.396607513628322E-11    4.8011457254221484E-12   2.94774577227092E-14     3.0213639627589617E-15   5.204785323582291E-16    5.660554799244445E-17    -1.0049029968221918E-12  -1.7166650491296593E-13
1.9999999999999998E-5     1.0426028642665763E-10   8.585052853889995E-11    5.402668258758405E-11    2.1757753202621254E-11   7.872046528947415E-12    5.874711543111939E-14    5.957895036088376E-15    9.306625806191242E-16    1.149882285690517E-16    -1.8029836842406363E-12  -3.358883047623328E-13
2.05E-5                   1.1040615096290733E-10   9.1252077687964E-11      6.406493794681133E-11    3.178751844486154E-11    1.2244949052902585E-11   1.1785391418238448E-13   1.176141540407598E-14    1.2467690592530835E-15   6.599256235651262E-17    -3.1431389519500457E-12  -6.470122358470375E-13
2.1E-5                    1.1070535900274633E-10   8.78615968067614E-11     6.896150301513865E-11    4.2598591884813996E-11   1.8083822177932524E-11   2.322693192550013E-13    2.2544288072589872E-14   2.0351578748534787E-15   -5.32488973169409E-18    -5.238260148429755E-12   -1.1868080388056288E-12
2.1499999999999997E-5     1.0338102770935579E-10   7.617202989196451E-11    6.902250391023681E-11    5.170377374849569E-11    2.5050437805008628E-11   4.3855961475922713E-13   4.2176552210467666E-14   4.9090951725800754E-15   2.1860684602448978E-16   -8.241962051783969E-12   -2.0572800308016815E-12
2.2E-5                    8.163449534585743E-11    5.5510874111566875E-11   6.430573861596186E-11    5.653788931912077E-11    3.1857355728016383E-11   7.863736104892821E-13    7.934080177807991E-14    1.1063372084926453E-14   9.055634217363996E-16    -1.2212475021021278E-11  -3.3992070079908465E-12
2.2499999999999998E-5     4.1593250813198285E-11   2.498141653068419E-11    5.2844225106618235E-11   5.553489029744646E-11    3.64696726490593E-11     1.3513590254301685E-12   1.5204119812318562E-13   1.9488308781514656E-14   1.6737230192483762E-15   -1.7027953002050955E-11  -5.382622554218709E-12
2.3E-5                    -1.1598808828861952E-11  -1.4129992205745693E-11  3.2579885326597244E-11   4.8705045779594245E-11   3.729877917251806E-11    2.257477818478018E-12    2.9028768288180994E-13   2.960191544478898E-14    2.0504439582749004E-15   -2.217120622909819E-11   -8.115824829707053E-12
2.35E-5                   -6.991195408859133E-11   -5.943531152521371E-11   4.301145166339359E-12    3.729724047736249E-11    3.4499660217568025E-11   3.6718596847696035E-12   5.357444565377271E-13    4.9516022637882057E-14   2.747857447233484E-15    -2.6604317162297597E-11  -1.1492667621213844E-11
2.4E-5                    -1.3346714030820787E-10  -1.1099837607644433E-10  -2.963094489003438E-11   2.2507692131063767E-11   2.979984974178929E-11    5.717477380678597E-12    9.45603093573685E-13     1.0098848586710374E-13   6.141354016594194E-15    -2.9152434033510405E-11  -1.5099213274509796E-11
2.45E-5                   -2.1062925992898622E-10  -1.7138337810104573E-10  -6.97752108675699E-11    3.996186033086605E-12    2.451403709987807E-11    8.312347291836538E-12    1.6104584697897558E-12   2.105940916404042E-13    1.472556104601599E-14    -2.929154138731962E-11   -1.8309553201224085E-11
2.4999999999999998E-5     -3.0646224976191585E-10  -2.4198144942996474E-10  -1.2039712078977787E-10  -2.0457640539956602E-11  1.7559422619756606E-11   1.1067799896501209E-11   2.6756728971966256E-12   3.9552500456939677E-13   2.9428190879320215E-14   -2.7407175933417364E-11  -2.0561362920534713E-11
2.55E-5                   -4.1578059655004894E-10  -3.2188528922085255E-10  -1.8447208398752547E-10  -5.364011640995064E-11   5.6511219437616286E-12   1.3409337710198876E-11   4.321678706068191E-12    6.721456584489975E-13    5.163688067505278E-14    -2.3873111920974276E-11  -2.1603857175655802E-11
2.6E-5                    -5.300940625759351E-10   -4.1040412854429327E-10  -2.5958852644446365E-10  -9.706335872810152E-11   -1.4437314730695748E-11  1.4897092295189803E-11   6.658166669977354E-12    1.0990856881586347E-12   8.929394526474435E-14    -1.7879338223107432E-11  -2.1449037765756204E-11
2.65E-5                   -6.474320434917095E-10   -5.070059661971412E-10   -3.3988603164059813E-10  -1.50137835331844E-10    -4.385218998550441E-11   1.5458590280570256E-11   9.559444004657207E-12    1.8167630907791227E-12   1.6107445051609765E-13   -7.659709051762227E-12   -1.9975426929433256E-11
2.7E-5                    -7.705687993217226E-10   -6.075220493475736E-10   -4.2029130264503156E-10  -2.106149894326441E-10   -8.143364481561658E-11   1.5245957389250783E-11   1.2570401223689526E-11   3.0210227231953616E-12   2.926469704174668E-13    7.962932127363602E-12    -1.6514754947810663E-11
2.7499999999999998E-5     -8.966531450807327E-10   -7.038303483011998E-10   -4.977839820147542E-10   -2.755086702833871E-10   -1.2453567919199675E-10  1.4200343609086816E-11   1.502009758659119E-11    4.855383081271249E-12    5.095719619392883E-13    2.8817960042547934E-11   -9.897943133428371E-12
2.8E-5                    -1.013447823349683E-9    -7.892988245223466E-10   -5.704102677715487E-10   -3.418999849841391E-10   -1.698210987025528E-10   1.1753769840482179E-11   1.6319139734557347E-11   7.28604993977011E-12     8.424686494251058E-13    5.448014409840449E-11    9.429553715733155E-13
2.8499999999999998E-5     -1.1076347972781278E-9   -8.617436981220514E-10   -6.363119479377491E-10   -4.0726671310978107E-10  -2.1445262949170594E-10  6.958386605662173E-12    1.6206181252107406E-11   1.0054658349391152E-11   1.3540694947706191E-12   8.52958639875564E-11     1.63329686950691E-11
2.9E-5                    -1.1738846524993485E-9   -9.186522953739396E-10   -6.921245648344774E-10   -4.688455128918811E-10   -2.577608196399884E-10   -1.1311538513766019E-12  1.4692322340702837E-11   1.2755811878493537E-11   2.1693382013808713E-12   1.2126883485677961E-10   3.5817231822136636E-11
2.95E-5                   -1.2125242270347909E-9   -9.51696891543901E-10    -7.315514905578092E-10   -5.223905333098799E-10   -3.012102715102675E-10   -1.3126039787883994E-11  1.1715561020471133E-11   1.4998528802776607E-11   3.4609628484720066E-12   1.6023482353262206E-10   5.872774439305355E-11
2.9999999999999997E-5     -1.2186643001621391E-9   -9.486730510579085E-10   -7.473196968316619E-10   -5.621251461550595E-10   -3.4519981251057835E-10  -2.899212494213241E-11   6.818179526927741E-12    1.653755915918605E-11    5.354078495944229E-12    1.9850288483509807E-10   8.460927274153226E-11
3.05E-5                   -1.1763209668197725E-9   -8.993696152477416E-10   -7.348694102924193E-10   -5.82914108496009E-10    -3.859148705445428E-10   -4.767684535698864E-11   -8.325720736641377E-13   1.7255640039355642E-11   7.785712851577026E-12    2.337626629141817E-10    1.129004909305888E-10
3.1E-5                    -1.0644407799396777E-9   -7.965183642691516E-10   -6.915583013546687E-10   -5.826576109471087E-10   -4.16928837777184E-10    -6.717032842992306E-11   -1.2058380145562801E-11  1.6979766646076523E-11   1.0438105576548257E-11   2.6635729670516417E-10   1.422891086022117E-10
3.15E-5                   -8.674244157847926E-10   -6.31881454947132E-10    -6.115389617686092E-10   -5.618104588525934E-10   -4.341520241308587E-10   -8.56409528209082E-11    -2.7178669629085956E-11  1.526717909522488E-11    1.2857457501628802E-11   2.9695279368625736E-10   1.7079121550519931E-10
3.2E-5                    -5.788400734464527E-10   -3.959655828226672E-10   -4.844055581530902E-10   -5.198644667665255E-10   -4.371889634720766E-10   -1.0301690433322846E-10  -4.570383073764004E-11   1.1341988049910715E-11   1.4720940465017587E-11   3.2361960613419026E-10   1.9677890715010907E-10
3.25E-5                   -1.9694728012975844E-10  -8.417582636329471E-11   -3.0064428253940906E-10  -4.519519909242832E-10   -4.2481315637257584E-10  -1.2105046238801694E-10  -6.636545079869993E-11   4.239217563182116E-12    1.6035440290117895E-11   3.419938089381975E-10    2.197351013578395E-10
3.2999999999999996E-5     2.7963591494303174E-10   2.98974346801857E-10     -5.656233912883616E-11   -3.4856501445081296E-10  -3.9126190308608424E-10  -1.409627540044771E-10   -8.748927036422073E-11   -6.917065548860179E-12   1.7044996386332578E-11   3.478221797727256E-10    2.3952592831084804E-10
3.35E-5                   8.503004702347355E-10    7.447294627574472E-10    2.4698673531454057E-10   -1.9876595537650017E-10  -3.2913497343146033E-10  -1.607942170516067E-10   -1.0754411864169594E-10  -2.256850095416943E-11   1.785259141231802E-11    3.3849673377221344E-10   2.548387728042507E-10
3.4E-5                    1.5085458278161267E-9    1.2480973980908627E-9    6.07626749136104E-10     4.92791751910076E-12     -2.344955000638046E-10   -1.7571750516533845E-10  -1.2551841637327144E-10  -4.237997832454434E-11   1.802568127937982E-11    3.1242763765320713E-10   2.6271906749788214E-10
3.45E-5                   2.2421459507843435E-9    1.8078487586177142E-9    1.0205498308449907E-9    2.6278622524655495E-10   -1.0658612932155758E-10  -1.81602186218883E-10    -1.4082101702468767E-10  -6.513873906635035E-11   1.6491309360434335E-11   2.679187802966503E-10    2.5984561573502865E-10
3.5E-5                    3.0364649792043428E-9    2.418393925964428E-9     1.4764488996602979E-9    5.676926625568496E-10    5.6092566454013393E-11   -1.7823697933689398E-10  -1.5279464254198743E-10  -8.919045697691565E-11   1.181369550424238E-11    2.0269710626504493E-10   2.439803400135483E-10
3.5499999999999996E-5     3.8743858835983975E-9    3.0639876026447813E-9    1.9634541086385366E-9    9.087957998385384E-10    2.552663937569447E-10    -1.6864445126122743E-10  -1.6031704065337342E-10  -1.1326304212089892E-10  2.705415590095217E-12    1.1371093128513323E-10   2.1399491181657934E-10
3.6E-5                    4.7312355642571115E-9    3.720727114807184E-9     2.4705121272065802E-9    1.2762991487155349E-9    4.877369767840976E-10    -1.5503240064370045E-10  -1.6188183423204518E-10  -1.3690981833404914E-10  -1.1474125317602806E-11  -2.6906341087250867E-12  1.6880953088979843E-10
3.65E-5                   5.571413726313509E-9     4.360979258010856E-9     2.9857063219664384E-9    1.6637004574588374E-9    7.445890798562647E-10    -1.35482477099436E-10    -1.5606440467804205E-10  -1.599245305596391E-10   -3.0461474004436385E-11  -1.4932396147026062E-10  1.0657842053686222E-10
3.7E-5                    6.352360431332128E-9     4.95440646423545E-9      3.4901415089817415E-9    2.065496182402837E-9     1.0179505235427848E-9    -1.0469336599264023E-10  -1.419365650707599E-10   -1.8113294997400252E-10  -5.323338028025076E-11   -3.2608840084424526E-10  2.469618017475622E-11
3.75E-5                   7.031858572210028E-9     5.466833776821049E-9     3.954996044519815E-9     2.4715481965274127E-9    1.3059808760086183E-9    -5.792855519333503E-11   -1.1913527133992972E-10  -1.9781298917879018E-10  -7.854584555315448E-11   -5.294172358782152E-10   -7.948529349847502E-11
3.7999999999999995E-5     7.569938502231763E-9     5.860323063207512E-9     4.345643238263465E-9     2.862390116673027E-9     1.6079144712234578E-9    5.917775714968143E-12    -8.767678138358771E-11   -2.064991186874493E-10   -1.0558653655934772E-10  -7.539046229012817E-10   -2.0735912478360723E-10
3.85E-5                   7.923360005481476E-9     6.094471247610869E-9     4.628387352934016E-9     3.210151486808924E-9     1.914890468439449E-9     8.508245010660276E-11    -4.7770781341158086E-11  -2.045328225958272E-10   -1.3428041351531072E-10  -9.939088771984198E-10   -3.578176274437967E-10
3.9E-5                    8.039925167394682E-9     6.127807799185904E-9     4.773417884047982E-9     3.4852654684561015E-9    2.20792524158273E-9      1.7802155977801506E-10   3.3661998305175596E-13   -1.909917229151915E-10   -1.6494703845667692E-10  -1.243113145117286E-9    -5.272288558625976E-10
3.95E-5                   7.860659703802575E-9     5.919996272313043E-9     4.752625699828256E-9     3.6630505063200257E-9    2.4642056957969894E-9    2.847428024827239E-10    5.6755335475046376E-11   -1.6630322460267714E-10  -1.9744764965490627E-10  -1.493005638180753E-9    -7.107456213844098E-10
3.9999999999999996E-5     7.330165411454877E-9     5.435673638124857E-9     4.536381483438299E-9     3.724187786652139E-9     2.663249156532915E-9     4.0492576496742534E-10   1.226918122607791E-10    -1.3106189324199987E-10  -2.303300011462262E-10   -1.7325800153082764E-9   -9.033573613799568E-10
4.0499999999999995E-5     6.407603347630457E-9     4.648579376682442E-9     4.0946974352973195E-9    3.650130942093354E-9     2.787829963877324E-9     5.356896145373652E-10    2.00976510867114E-10     -8.50960120565778E-11    -2.605003288384202E-10   -1.949523800276111E-9    -1.0994393174874428E-9
4.1E-5                    5.070108527911267E-9     3.543360821163515E-9     3.403896033468567E-9     3.4197719061887448E-9    2.822040461665639E-9     6.718666949318305E-10    2.9533645445737977E-10   -2.741660644974725E-11   -2.836599594875964E-10   -2.130984245737714E-9    -1.2916402038163828E-9
4.15E-5                   3.3077373229567737E-9    2.114109382232161E-9     2.452946608762252E-9     3.0107401527270783E-9    2.749206689197704E-9     8.077621323610944E-10    4.0798017465789327E-10   4.307334713166264E-11    -2.953486355627441E-10   -2.2626919540917196E-9   -1.4706908979124012E-9
4.2E-5                    1.1177326957344402E-9    3.622817167910284E-10    1.2427289482911166E-9    2.402838344022419E-9     2.54998645452725E-9      9.377873876440435E-10    5.366427489058284E-10    1.267544784021754E-10    -2.9210136950421204E-10  -2.3276347205927E-9      -1.6262040823613593E-9
4.2499999999999996E-5     -1.4933042328019933E-9   -1.7017427145389746E-9   -2.1968282139432473E-10  1.5807912957451573E-9    2.2029028916968557E-9    1.0559169524795862E-9    6.733501215866791E-10    2.2302959447280125E-10   -2.720821111832938E-10   -2.306486799422571E-9    -1.747182455611458E-9
4.2999999999999995E-5     -4.499597038266044E-9    -4.052828894507107E-9    -1.9222395317263983E-9   5.374482756009235E-10    1.690356657493104E-9     1.1556088455488728E-9    8.063596733060757E-10    3.307974802850779E-10    -2.3477553542473486E-10  -2.1804519431669956E-9   -1.8215543522011782E-9
4.35E-5                   -7.847658697984865E-9    -6.645671419528061E-9    -3.840927829275432E-9    -7.21037058108981E-10    1.0068420960909455E-9    1.2300156295895667E-9    9.242716008764199E-10    4.491047651920868E-10    -1.7991941607596923E-10  -1.9347543587829867E-9   -1.8355815036575195E-9
4.4E-5                    -1.1456199400927267E-8   -9.414344356434951E-9    -5.932235131649843E-9    -2.1709784377862454E-9   1.6105069337266809E-10   1.2712088600163011E-9    1.0192970541827323E-9    5.771754589511776E-10    -1.0646362765500185E-10  -1.5602699196647448E-9   -1.77448137087062E-9
4.45E-5                   -1.5222182258421617E-8   -1.2275790986000234E-8   -8.13337645852002E-9     -3.772686056840264E-9    -8.302942831568629E-10   1.2694047484959131E-9    1.0872221639492324E-9    7.136184592665125E-10    -1.2368282363837302E-11  -1.0525994704286516E-9   -1.6244932613955566E-9
4.4999999999999996E-5     -1.9025563007841157E-8   -1.513304017264827E-8    -1.0368784967467201E-8   -5.477598448423737E-9    -1.9490435038750248E-9   1.214385526940166E-9     1.1245432485418426E-9    8.553940437679171E-10    1.0463038043160611E-10   -4.1040991728766127E-10  -1.3751028519173958E-9
4.5499999999999995E-5     -2.272965284633648E-8    -1.7876615212064887E-8   -1.2555756208572384E-8   -7.2348853363089406E-9   -3.175576666630939E-9    1.0981519824948778E-9    1.1258218175004517E-9    9.971282027975204E-10    2.4594215858372724E-10   3.6456620187991807E-10   -1.0199788026097261E-9
4.6E-5                    -2.618098099636001E-8    -2.0386089187450158E-8   -1.4606033645282644E-8   -8.991915363785955E-9    -4.484706614039637E-9    9.152733698575707E-10    1.0837766933836395E-9    1.1307524282669263E-9    4.1151000846660763E-10   1.2653807162575457E-9    -5.565776754167299E-10
4.65E-5                   -2.9213421753775957E-8   -2.2533653805651133E-8   -1.642518034957959E-8    -1.0688977845244889E-8   -5.843675077183418E-9    6.606515065717869E-10    9.914287176946824E-10    1.2453206085440891E-9    5.998284924934798E-10    2.2772993131437955E-9    1.4438396335574604E-11
4.7E-5                    -3.1656519144347926E-8   -2.4189587374167653E-8   -1.7912421287392357E-8   -1.2253340327407142E-8   -7.21188883766537E-9     3.2901635756725394E-10   8.433735693987606E-10    1.3274864955162318E-9    8.080927710224843E-10    3.3768378708030426E-9    6.891161951599928E-10
4.7499999999999996E-5     -3.334409301797622E-8    -2.522843409615439E-8    -1.896306718405279E-8    -1.3597903306399646E-8   -8.538152229219042E-9    -8.145638787428526E-11   6.347902697865617E-10    1.3633098754864706E-9    1.0318921406729158E-9    4.532745038302129E-9     1.459410845915356E-9
4.8E-5                    -3.412037317614398E-8    -2.5534744007009047E-8   -1.9474787922499568E-8   -1.462692561333207E-8    -9.757135139044832E-9    -5.654486258474667E-10   3.6030207898169165E-10   1.3409616302404067E-9    1.2643666362200714E-9    5.707497132261747E-9     2.3118231166588564E-9
4.85E-5                   -3.3844689736455516E-8   -2.5007836504927545E-8   -1.935600012870458E-8    -1.5247056637461517E-8   -1.079222581918114E-8    -1.1118347201652686E-9   1.5606551295166374E-11   1.2526832577149308E-9    1.4953810294564407E-9    6.857856329424869E-9     3.225829173853272E-9