% Model:              Untitled.mph
% Version:            COMSOL 6.0.0.405
% Date:               Jul 16 2025, 14:09
% Dimension:          1
% Nodes:              401
% Expressions:        11
% Description:        Point graph
% Time (s)                Displacement field, Y component Displacement field, Y component Displacement field, Y component Displacement field, Y component Displacement field, Y component Displacement field, Y component Displacement field, Y component Displacement field, Y component Displacement field, Y component Displacement field, Y component Displacement field, Y component
0                         -1.1842871579563427E-34  5.568709893995448E-34    7.926176769497531E-33    1.604203495430128E-33    2.7678554185724535E-33   9.77163539770462E-33     2.284069501576215E-32    2.1520897641717567E-32   1.0354026710330356E-32   -2.9386730383566915E-31  -1.3549726647636085E-31
5.0E-7                    3.998367056719126E-26    6.411737480198808E-26    -1.6341688738911816E-24  -8.721595275673543E-26   -4.925999622812223E-24   -4.9760479348569096E-24  -4.091181257843917E-25   1.2983448897829726E-23   9.357933942062482E-24    5.299043489651501E-23    1.285867369864629E-23
1.0E-6                    -6.818004201154089E-26   3.526557169624058E-24    5.433541370289123E-24    -1.1222919211662118E-24  5.625022729527932E-23    4.6368843897904025E-23   -3.573174652454364E-23   -1.3294247596924188E-22  -9.787066543071249E-23   -1.2950760404543855E-22  1.727506072970505E-23
1.5E-6                    3.66301456034537E-25     -1.0982787137603084E-23  3.56481666756486E-24     -3.366294700349784E-24   -7.295989165622223E-23   -7.636178647117302E-23   2.464086567884688E-22    2.564888145219251E-22    2.3971241233588367E-22   -1.4925453261726316E-22  6.83291535243596E-24
2.0E-6                    3.0347635623093752E-24   2.1826305886973636E-23   5.092319129529965E-23    9.699753643408987E-24    -1.38040112925821E-21    -7.692459354924805E-22   -5.812700633133857E-22   5.831263509371016E-22    4.0229277488946654E-22   2.4456397642663993E-21   -2.654763291820252E-22
2.4999999999999998E-6     -9.318009819176824E-24   6.279719652627789E-23    4.2251893386230623E-23   2.610601689272167E-22    2.568551417407426E-21    1.994624584161756E-21    -3.439398891174151E-22   -1.3287287002789591E-21  -1.5422270243663808E-21  -6.446438831403196E-21   -3.7429836194926145E-22
3.0E-6                    -6.41280640868682E-23    -5.15710235765037E-22    -8.799009678340455E-22   2.351346681506395E-21    8.070367975670014E-21    7.71067873493386E-21     3.1123803262424516E-21   -6.693706017832258E-21   -4.492256525662221E-21   1.2276905137191917E-21   6.6880976920833246E-21
3.5E-6                    2.7056509790123686E-23   6.345448747453761E-23    -1.7866933612382848E-21  3.988457701220096E-21    -2.151888318702909E-20   -2.4203890804812234E-20  4.060768902556073E-21    1.2398289558637039E-20   1.0623655672956249E-20   -6.255361495108738E-21   -1.0887478970466755E-20
4.0E-6                    6.028529693894362E-22    2.9559508932310775E-21   -5.417637638080707E-21   -2.13806302661615E-21    -2.3950213872229524E-20  -3.9310427425924226E-20  -1.7646298450407115E-20  5.0692861060767346E-20   3.851658401464289E-20    6.888785302967461E-20    -1.2510060872850117E-20
4.5E-6                    3.977331979689541E-22    6.927030086155737E-23    1.0699910099995436E-20   7.813498647803238E-21    1.4248560883748004E-19   1.9192602094006225E-19   -4.192702526638227E-20   -7.749141770994013E-20   -5.639707980872302E-20   -1.0603394740308833E-20  1.1788350799532038E-20
4.9999999999999996E-6     -2.67318287713432E-21    -6.974467802925313E-21   5.498693164950646E-20    8.014624798498009E-21    9.085619501788555E-20    1.2946638103555404E-19   8.807037166446925E-20    -2.968225272510711E-19   -2.399915590913046E-19   -5.719196174019135E-19   -3.952235567937878E-20
5.5E-6                    -5.017352539181121E-21   -4.448189535973036E-21   -1.515399676534311E-20   -1.3436501614639752E-19  -8.739680347480989E-19   -1.0589495959380781E-18  2.0951478180401205E-19   2.3297577881631727E-19   1.5318270071548722E-19   5.144406480829651E-19    2.570814824728615E-19
6.0E-6                    1.9856562454943212E-21   -6.0822858479931114E-21  -2.047072423707566E-19   1.474158913744303E-19    -9.018332253633609E-19   -3.87369439234874E-19    -2.928146940663103E-19   1.3949330364151967E-18   1.1429409278741128E-18   2.6628536066756872E-20   2.8833578116787613E-19
6.5E-6                    2.2988922213064173E-20   7.522007593335848E-21    -3.6748796166323023E-19  1.861085548557385E-18    4.83926113874576E-18     5.193184970400187E-18    -4.3039898072752714E-19  2.3560036856579415E-19   2.5478130386491317E-19   -6.058782210386085E-18   -2.7310407772149856E-18
7.0E-6                    4.335129504802348E-20    1.0703934427842294E-19   -5.288382882130801E-19   1.8221429782158402E-18   1.0933926053996288E-17   4.60679984843786E-18     1.3174174530130929E-18   -4.541917802915003E-18   -3.82491453108151E-18    5.552208218082305E-18    -6.932812335847885E-18
7.499999999999999E-6      -1.2867729368103374E-20  1.1509372551474824E-19   1.2874338438276806E-18   -5.837326797703414E-18   -8.53541586455949E-18    -1.568786125711848E-17   -3.3701038769405774E-20  -5.72172377852075E-18    -4.569432542981612E-18   1.776811274976479E-17    -3.431327940960221E-19
8.0E-6                    -2.22166878577767E-19    -2.859755046576834E-19   6.26170013736518E-18     -9.428171549524683E-18   -4.8088424531918463E-17  -2.5365781897186505E-17  -7.176672423919652E-18   6.3230056900093246E-18   6.440818752791043E-18    -6.535124768600897E-17   2.3192564198555988E-17
8.5E-6                    -3.1400943676347927E-19  -4.63784920278161E-19    1.1837505984598268E-18   2.0795747502526252E-17   -1.3415851885355512E-18  4.291528897688665E-17    3.322282370588414E-18    2.5753696617496636E-17   2.1013177829891153E-17   -1.2974324391221978E-16  1.5611739099276412E-17
9.0E-6                    3.970619227040449E-19    7.453992896986453E-19    -2.5752984362444534E-17  6.620643139921457E-17    1.93274728077555E-16     1.5799808904880765E-16   4.337410808587176E-17    2.2841163938846147E-17   1.1408275898852194E-17   8.900265737660081E-17    -1.3208647253208814E-16
9.499999999999999E-6      1.789028699423707E-18    1.4759197923287188E-18   -2.885136866176455E-17   3.0746858732907016E-17   2.730204493675329E-16    7.960599544845037E-17    2.6847495309601216E-17   -4.051072232556489E-17   -4.135476635274931E-17   1.74890581443696E-16     -3.6392691406872174E-16
9.999999999999999E-6      1.8087012505457308E-18   -5.737939894827394E-19   5.656803488692358E-17    -9.257192171480359E-17   -4.431518352745382E-17   -3.240196135149473E-16   -1.23499881244969E-16    -1.4521093837127505E-16  -1.0129140950355161E-16  -6.139628616136348E-16   -2.5741175716325634E-16
1.05E-5                   -9.254635161971397E-19   6.818759396316766E-18    1.5270338470274264E-16   -6.048436465703567E-17   -2.098502420182096E-16   -3.5237656729045975E-16  -1.697211548021639E-16   -1.070147196255688E-16   -4.6843207308111713E-17  -1.6944011324242201E-15  2.1316872356311232E-16
1.1E-5                    -3.182728118979196E-18   4.116644440183626E-17    1.0087464932772902E-16   3.768012425715763E-16    7.875809071957414E-16    1.2331534127571745E-15   2.888233732665652E-16    3.1238605022584314E-16   2.2948970580597165E-16   -2.0101745573686547E-15  -4.0738926601631734E-16
1.15E-5                   3.838702182880418E-19    6.362602882792263E-17    2.3734259929470578E-17   1.1182772576663153E-15   2.6745783943610945E-15   3.596093850700133E-15    9.617632927619037E-16    8.081994973432677E-16    5.058037119310314E-16    -2.1786928564669442E-15  -3.412440730872597E-15
1.2E-5                    1.7792073460957335E-17   5.862665144388617E-18    3.0282167490440806E-16   1.9881593174738935E-15   4.761872368322243E-15    2.410473183272615E-15    7.364253832615407E-16    2.601696227566026E-16    1.2445880038196145E-16   -3.961922727640296E-15   -7.000377699186092E-15
1.2499999999999999E-5     7.801427302992649E-17    5.54685794746565E-17     1.1649999938935015E-15   3.3498637347755293E-15   1.0165506795521563E-14   -3.2863984752070758E-15  -6.459262970102716E-16   -1.6873048586524342E-15  -1.1473462851440918E-15  -1.2125085835459136E-14  -9.793515682867034E-15
1.3E-5                    2.1633251840233753E-16   8.083435710107853E-16    3.167405206962096E-15    6.53384021247683E-15     2.4283323896815374E-14   -7.595715507349363E-16   -1.3007960354621057E-15  -2.4493020154282164E-15  -1.893380162501699E-15   -3.46175476365926E-14    -1.7056915332612133E-14
1.35E-5                   3.8183908738954653E-16   2.553523783008471E-15    8.145851715014214E-15    1.5343766956481117E-14   4.486248028928391E-14    2.603871418251027E-14    1.338191345803053E-15    1.4112572515930706E-15   5.362800776299083E-17    -6.518544979703086E-14   -3.293645852533731E-14
1.4E-5                    5.01623458403883E-16     4.537586010495992E-15    1.8577763175642074E-14   3.8084553526895264E-14   6.72727952487247E-14     6.029630907597465E-14    8.761738770500543E-15    7.495771598527527E-15    4.075082647857909E-15    -8.54078093438475E-14    -5.319036331518214E-14
1.45E-5                   1.0349282526927013E-15   7.053697419894341E-15    3.815915293502474E-14    8.57435206762269E-14     1.2403601851632579E-13   5.2266666887109715E-14   2.0938332447920294E-14   6.725408928652388E-15    5.387649804880626E-15    -1.4208737222841123E-13  -9.979145907104551E-14
1.4999999999999999E-5     3.4903766654694392E-15   1.620292636030586E-14    7.863224634466523E-14    1.7214800382926456E-13   3.120732829085546E-13    1.501419990770627E-14    3.2215601915839545E-14   -3.649244132548616E-15   1.1157035408502071E-16   -3.851246866564417E-13   -2.5419247822038686E-13
1.55E-5                   9.65328278240577E-15     4.42694290843853E-14     1.6749946756518433E-13   3.348171736653588E-13    7.287452453389138E-13    1.0680291077361976E-13   2.9452199551574465E-14   -7.723056498815867E-15   -8.480194667649458E-15   -8.76715310834577E-13    -5.68521002300066E-13
1.6E-5                    2.040118617264719E-14    1.021760597176739E-13    3.498830047400314E-13    6.636203476325019E-13    1.359230818416063E-12    4.781137418954714E-13    1.847587946821678E-14    1.4582273910915582E-14   -1.1952577934531736E-14  -1.3987578277151262E-12  -9.287452555563426E-13
1.6499999999999998E-5     3.8336995750887567E-14   1.9993967017302168E-13   6.970912640944737E-13    1.2799628958268096E-12   2.1263268397676757E-12   9.65114574788975E-13     7.003292762708596E-14    5.2279273119848643E-14   -4.526742490126943E-15   -1.817952432679764E-12   -1.205373494040553E-12
1.7E-5                    7.541029126422138E-14    3.75856727131046E-13     1.326415666645744E-12    2.286925727389028E-12    3.2218770678442786E-12   1.171457925064697E-12    2.9458472090159895E-13   6.156735478117831E-14    1.4666889152145644E-14   -2.846395730663195E-12   -1.7405883404571113E-12
1.75E-5                   1.579256033814947E-13    7.352775372510109E-13    2.399946854136269E-12    3.861916331695814E-12    5.435465715140332E-12    1.201143443211922E-12    6.951042543726536E-13    3.5799547819398616E-14   4.217219388795194E-14    -5.999661176166776E-12   -3.540599785025314E-12
1.8E-5                    3.247540668907287E-13    1.442796261496293E-12    4.116376680844707E-12    6.532862865998132E-12    9.949294426096167E-12    2.2236621190182784E-12   1.079000040533369E-12    7.806669581189198E-14    5.988596304069707E-14    -1.2195441980581124E-11  -7.610110818145773E-12
1.85E-5                   6.343702952828704E-13    2.664458101012372E-12    6.801108855119706E-12    1.1217201681081738E-11   1.7458165251616734E-11   5.729831461449036E-12    1.3124797805870967E-12   3.3396022634926153E-13   3.023534765480778E-14    -2.0470908859692196E-11  -1.3970174587847271E-11
1.8999999999999998E-5     1.1936657798506625E-12   4.559903963133697E-12    1.1038250770194925E-11   1.8551636680723565E-11   2.724708892438383E-11    1.1868518682691084E-11   1.8164704256732076E-12   7.840160826737521E-13    -5.713164577238489E-14   -2.864796575746232E-11   -2.1523934703890596E-11
1.95E-5                   2.1768821192085777E-12   7.400518246852533E-12    1.7419811613244927E-11   2.791233848701592E-11    3.7136974481663314E-11   1.889092822378808E-11    3.675572568267549E-12    1.1775746586304762E-12   -1.0353504702070345E-13  -3.530222396797474E-11   -2.894792831241151E-11
1.9999999999999998E-5     3.7985790222687195E-12   1.167904975921277E-11    2.5653458073655887E-11   3.726521768661031E-11    4.4508565849344635E-11   2.4757207317210398E-11   7.917596531453936E-12    1.3836203026864319E-12   8.322757765209141E-14    -4.046460025407734E-11   -3.5473627119416725E-11
2.05E-5                   6.3048567834822275E-12   1.7896187644504508E-11   3.3767148073013984E-11   4.41766599445049E-11     4.758520642187858E-11    2.909923286523437E-11    1.450515876716889E-11    1.907821897268357E-12    5.82460303938762E-13     -4.419711369101955E-11   -4.0672813380487684E-11
2.1E-5                    1.0078103983988266E-11   2.586727916445869E-11    3.871782076092542E-11    4.6847822685706964E-11   4.597080754220752E-11    3.296120229114044E-11    2.2156050951295627E-11   3.857906928703653E-12    1.1432911145527538E-12   -4.524218365770956E-11   -4.376833421526162E-11
2.1499999999999997E-5     1.5688632791994642E-11   3.397632368341934E-11    3.848739438690384E-11    4.427852139306661E-11    4.0322973411790646E-11   3.6587683245746E-11      2.9279469069398054E-11   8.080122245991344E-12    1.3265224823155551E-12   -4.1790596161634924E-11  -4.35464964406759E-11
2.2E-5                    2.3466563983739566E-11   3.9373555092823526E-11   3.375151807890523E-11    3.6295322682281453E-11   3.1777312070274685E-11   3.823650582312247E-11    3.494292126763763E-11    1.4263428487375094E-11   1.0789522415717853E-12   -3.3214824243212665E-11  -3.901095188228547E-11
2.2499999999999998E-5     3.260137844777867E-11    3.967197915334607E-11    2.7106177869729566E-11   2.4102432081393126E-11   2.130601702521917E-11    3.562665975655796E-11    3.8720298022280795E-11   2.106842035146245E-11    1.2080769312655176E-12   -2.0167749610132823E-11  -2.989536759279912E-11
2.3E-5                    4.076037010786867E-11    3.4912881729084774E-11   2.0284398898729382E-11   1.0024153026301123E-11   8.5571124080848E-12      2.8004776753608772E-11   3.977460423351209E-11    2.7171342404042853E-11   3.078589873426963E-12    -2.8949851379917714E-12  -1.6351732106575968E-11
2.35E-5                   4.52628857033123E-11     2.738526960044663E-11    1.2112336813095E-11      -4.7758628233577805E-12  -9.424643291357232E-12   1.6086889488077313E-11   3.663548836525197E-11    3.198394994488755E-11    7.562111938777483E-12    1.9790874765550685E-11   1.8213093102923822E-12
2.4E-5                    4.508627345946563E-11    1.8840331496760293E-11   -6.627013426929218E-13   -2.255614948106985E-11   -3.765802371087013E-11   2.6729223169483747E-13   2.8219360020623674E-11   3.534228317762434E-11    1.4149877982842893E-11   4.947537724244241E-11    2.5482828053320068E-11
2.45E-5                   4.1326437779773514E-11   8.194739342819055E-12    -2.0569462137416597E-11  -4.800346996553471E-11   -7.975234770450836E-11   -2.0178248406797397E-11  1.4818584686306307E-11   3.688577367937446E-11    2.1127427915948466E-11   8.651427238778605E-11    5.560319178591297E-11
2.4999999999999998E-5     3.5041406457346816E-11   -7.28943966169728E-12    -4.763208648244549E-11   -8.450732797169669E-11   -1.339324704710762E-10   -4.593482408507513E-11   -2.3972916193368678E-12  3.6019094104092146E-11   2.674016226449911E-11    1.2971915225907552E-10   9.24220498091979E-11
2.55E-5                   2.4846935771730865E-11   -2.8999096427013995E-11  -8.027790308859062E-11   -1.3155001288805656E-10  -1.928278136323226E-10   -7.651364652137825E-11   -2.2905831535165034E-11  3.2111849543299575E-11   3.0383743894972037E-11   1.771833243233487E-10    1.3511213951514987E-10
2.6E-5                    7.536581319819766E-12    -5.626409783478995E-11   -1.1724512056264376E-10  -1.8499687195189377E-10  -2.4794758906360355E-10  -1.107664251470549E-10   -4.7401823073701855E-11  2.4143881784725598E-11   3.287639988423926E-11    2.2697276033578832E-10   1.8213056931205542E-10
2.65E-5                   -1.869343667169417E-11   -8.821262524262521E-11   -1.5769816565660866E-10  -2.38684888857238E-10    -2.94752121395099E-10    -1.479587070081616E-10   -7.650264623847606E-11   1.0274397323497047E-11   3.5588620304832316E-11   2.774134283187193E-10    2.317563472062469E-10
2.7E-5                    -5.24572990009524E-11    -1.2449400025467266E-10  -1.997390929126032E-10   -2.864133928595917E-10   -3.339959728710835E-10   -1.877139974640394E-10   -1.0909387261708491E-10  -1.1350068049464879E-11  3.8932139002754623E-11   3.273865160250315E-10    2.822931507785731E-10
2.7499999999999998E-5     -9.105896030759806E-11   -1.6386882898804462E-10  -2.404694022727171E-10   -3.250913062153202E-10   -3.695454571571659E-10   -2.2928916128034887E-10  -1.4245158825377707E-10  -4.0709498549231844E-11  4.114471228090371E-11    3.762133122803054E-10    3.319566437536376E-10
2.8E-5                    -1.3330850910712065E-10  -2.0407966329050045E-10  -2.786587216700059E-10   -3.573835634202998E-10   -4.055745019321494E-10   -2.715945624722258E-10   -1.7427345327188026E-10  -7.508942441419788E-11   3.83623489946571E-11     4.224378958975532E-10    3.7884485642763213E-10
2.8499999999999998E-5     -1.7958162624238401E-10  -2.4417092550191167E-10  -3.162177480385918E-10   -3.8964819973153237E-10  -4.4400768332924574E-10  -3.135719791871558E-10   -2.045711033130333E-10   -1.1079217879626957E-10  2.6336528894317207E-11   4.623464404477778E-10    4.2105928958298587E-10
2.9E-5                    -2.2961297925816241E-10  -2.851433894193882E-10   -3.5484086778349566E-10  -4.2484068263232315E-10  -4.814043180238149E-10   -3.5344251357869485E-10  -2.354899905556553E-10   -1.4589736904163426E-10  2.844823535423882E-12    4.90116634035455E-10     4.5641225085402203E-10
2.95E-5                   -2.812878379874447E-10   -3.264970234924095E-10   -3.9074189511046615E-10  -4.5674071266746973E-10  -5.070505172834291E-10   -3.872797796651155E-10   -2.6912630945619723E-10  -1.8117745435454792E-10  -3.1078301414037926E-11  4.998640219768214E-10    4.813811555048256E-10
2.9999999999999997E-5     -3.3135714114950525E-10  -3.6316762968561035E-10  -4.14414978604423E-10    -4.716540237460906E-10   -5.060284977344025E-10   -4.0930418781652843E-10  -3.0506290952607934E-10  -2.1834668285949498E-10  -7.221718222373231E-11   4.874141432877545E-10    4.902619468161685E-10
3.05E-5                   -3.7623195763248966E-10  -3.880021349364631E-10   -4.1698418358545267E-10  -4.5609282052461586E-10  -4.668625044576303E-10   -4.1461539607414425E-10  -3.3934339536041166E-10  -2.577276851391642E-10   -1.1760282139628712E-10  4.4988512338493516E-10   4.760624773060044E-10
3.1E-5                    -4.1223719756737623E-10  -3.972195054936183E-10   -3.9622022612180913E-10  -4.034666755982557E-10   -3.8737140178625637E-10  -4.0157095492258526E-10  -3.6545999701270334E-10  -2.976057640825325E-10   -1.6603090779360257E-10  3.8395041077391227E-10   4.3302637823998786E-10
3.15E-5                   -4.3655675635617824E-10  -3.917524147012585E-10   -3.551655488327723E-10   -3.1525923816704875E-10  -2.7333302643014333E-10  -3.7063075402596117E-10  -3.767344980283711E-10   -3.35174568413258E-10    -2.1741172791794626E-10  2.8523863247476623E-10   3.5843935014242955E-10
3.2E-5                    -4.4828678935785217E-10  -3.727838682022676E-10   -2.9520028084602185E-10  -1.9768591607736322E-10  -1.3172371010884776E-10  -3.2043789107306387E-10  -3.687401243445262E-10   -3.6727515351189306E-10  -2.709510975985571E-10   1.4975439614117487E-10   2.5179432022938305E-10
3.25E-5                   -4.469654950621207E-10   -3.3720302877349685E-10  -2.120197873465029E-10   -5.6923033501389074E-11  3.551656307964842E-11    -2.457014664601853E-10   -3.402579719858357E-10   -3.8999275055360165E-10  -3.2414966795271825E-10  -2.424212546390526E-11   1.1244633277589216E-10
3.2999999999999996E-5     -4.2892475372120244E-10  -2.781792262107259E-10   -9.908117220375233E-11   1.0497114212237152E-10   2.334408125189266E-10    -1.4006496169957533E-10  -2.9198173386604683E-10  -3.9814081027843134E-10  -3.7336875248676113E-10  -2.3578462172339016E-10  -6.134462424866679E-11
3.35E-5                   -3.8627708495329296E-10  -1.8957136630243538E-10  4.6176582615463696E-11   2.9177350303623664E-10   4.712243168762738E-10    -1.356476559014492E-12   -2.238639244150558E-10   -3.8614538214578173E-10  -4.1491964390199944E-10  -4.823473026498782E-10   -2.709879622011626E-10
3.4E-5                    -3.113719455516221E-10   -6.92791890730106E-11    2.2099316512458688E-10   5.10852066913125E-10     7.552633879611327E-10    1.668679217228479E-10    -1.334717459744024E-10   -3.5023618175010833E-10  -4.454046073462582E-10   -7.611952292168565E-10   -5.15709201039609E-10
3.45E-5                   -2.0234527368405294E-10  8.112503814548413E-11    4.218305413386212E-10    7.675140896357328E-10    1.081569490650176E-9     3.5973027305510574E-10   -1.710446887672202E-11   -2.9000919642730526E-10  -4.613523872318261E-10   -1.0694484978108115E-9   -7.92341975058132E-10
3.5E-5                    -6.30857017531161E-11    2.592803955264903E-10    6.482961238064694E-10    1.0596698746179415E-9    1.4336623137008395E-9    5.763699742833271E-10    1.2734107998904185E-10   -2.0753630983490405E-10  -4.591284220189661E-10   -1.40241680536574E-9     -1.0963048909405957E-9
3.5499999999999996E-5     1.0248628176529147E-10   4.6446834819293026E-10   9.01013063745513E-10     1.3766153224754137E-9    1.7890827338372046E-9    8.196332452565355E-10    2.9880916958085347E-10   -1.0441379632509392E-10  -4.354067248812572E-10   -1.751126107358936E-9    -1.4217137678304842E-9
3.6E-5                    2.9509128465638297E-10   6.972077732809793E-10    1.1758900531640136E-9    1.7019127197960145E-9    2.129047107572758E-9     1.0900073211588212E-9    4.944790071368155E-10    2.0710679362649574E-11   -3.8722353086474215E-10  -2.100836611449374E-9    -1.7598793427142504E-9
3.65E-5                   5.187163459993987E-10    9.559480832849955E-10    1.461654279325066E-9     2.017027083128617E-9     2.4419837519731867E-9    1.3801389079426333E-9    7.122212770455533E-10    1.718232051608751E-10    -3.1082611138456944E-10  -2.4319764332079083E-9   -2.0976612808165723E-9
3.7E-5                    7.754558725147681E-10    1.2336530671338703E-9    1.743102280699E-9        2.303241824386966E-9     2.718324013476756E-9     1.6750332494718824E-9    9.507539894641183E-10    3.5262995889451016E-10   -2.004123446767019E-10   -2.723234650422172E-9    -2.417451690820219E-9
3.75E-5                   1.062090555499551E-9     1.5175881070229352E-9    2.005510596315E-9        2.542380398678366E-9     2.942920526288231E-9     1.956724298805371E-9     1.2066613700369518E-9    5.634689434093343E-10    -4.9089291346672836E-11  -2.954756533781327E-9    -2.698895847083655E-9
3.7999999999999995E-5     1.3704205844434015E-9    1.7925150306094633E-9    2.23516843817256E-9      2.7175927090994065E-9    3.0926050426392587E-9    2.208717278498777E-9     1.4711161633789904E-9    8.00273557081435E-10     1.4727164610138223E-10   -3.109079906916035E-9    -2.9210599266594325E-9
3.85E-5                   1.6890749590724623E-9    2.0442167319383033E-9    2.416979365779673E-9     2.813700209965523E-9     3.1403150073069717E-9    2.417238444514192E-9     1.7297805474616379E-9    1.0557146947309171E-9    3.8602866406403827E-10   -3.169204318594449E-9    -3.063882762255997E-9
3.9E-5                    2.0045133095017554E-9    2.260624672083506E-9     2.5338596503409635E-9    2.816010343804246E-9     3.0617097059806607E-9    2.5695635712177128E-9    1.9662342649663284E-9    1.3209946721965365E-9    6.576415213621855E-10    -3.1157689271251667E-9   -3.1085800854314432E-9
3.95E-5                   2.3013924263074876E-9    2.4303971159509387E-9    2.5692465025896218E-9    2.708452907510606E-9     2.8394893002042734E-9    2.6514734383839424E-9    2.1657266639677316E-9    1.5869183321733326E-9    9.50387739127921E-10     -2.9264600741378775E-9   -3.0372525972894024E-9
3.9999999999999996E-5     2.5631550765042637E-9    2.54016337108488E-9      2.508945188520122E-9     2.473345959264845E-9     2.463332397123123E-9     2.6461148728882066E-9    2.315769325072933E-9     1.8439838768837422E-9    1.2561717653685672E-9    -2.5791466100370173E-9   -2.8323708466305874E-9
4.0499999999999995E-5     2.772351200722622E-9     2.5720792517441776E-9    2.339554022082938E-9     2.0937707921154705E-9    1.9267394046633624E-9    2.535326226591785E-9     2.4034047035219477E-9    2.0817965708085217E-9    1.5722826903125294E-9    -2.0571103832493484E-9   -2.4770837403614022E-9
4.1E-5                    2.909839782131946E-9     2.5041804625252103E-9    2.046325152492403E-9     1.5572636730372751E-9    1.2240352648751091E-9    2.302279175471856E-9     2.412594773744867E-9     2.2879007856217615E-9    1.897457068393278E-9     -1.3530155008950036E-9   -1.9568630294651283E-9
4.15E-5                   2.9537589380310775E-9    2.3150941801250248E-9    1.6150334783570871E-9    8.589389122482245E-10    3.5022225868873643E-10   1.933407149953405E-9     2.3253569359477856E-9    2.446253651459676E-9     2.2253831410292997E-9    -4.694549943649296E-10   -1.2619850414077823E-9
4.2E-5                    2.8805067990211846E-9    1.9905177348530433E-9    1.0374040525048588E-9    2.999531801203217E-12    -6.959168944594451E-10   1.4192966788094687E-9    2.1266013911608697E-9    2.536579438243582E-9     2.5403198071258108E-9    5.833259087224556E-10    -3.8985420291642537E-10
4.2499999999999996E-5     2.668522398574662E-9     1.526024056032348E-9     3.14897497870186E-10     -9.975994522177225E-10   -1.906996036271345E-9    7.558419514171032E-10    1.808572686347941E-9     2.536436654718155E-9     2.817174848003878E-9     1.7899678575392427E-9    6.533914238553439E-10
4.2999999999999995E-5     2.3025950850401656E-9    9.239254206773827E-10    -5.423693575779059E-10   -2.1228689329844934E-9   -3.26256118893148E-9     -5.419291123021474E-11   1.370548207123335E-9     2.426206347832209E-9     3.02519183159256E-9      3.1302343493750175E-9    1.8520374137560603E-9
4.35E-5                   1.7753259368202944E-9    1.87909794666245E-10     -1.5191472779695555E-9   -3.3475223790621007E-9   -4.726670562022858E-9    -1.0008163192375957E-9   8.137442461640695E-10    2.1940487203683625E-9    3.1329780459235545E-9    4.576234651598778E-9     3.180751946157092E-9
4.4E-5                    1.0848106861025573E-9    -6.790915152769131E-10   -2.596648097273473E-9    -4.641140280177871E-9    -6.248315775046147E-9    -2.0679852174771436E-9   1.3640359334910068E-10   1.836706193022763E-9     3.112971013307448E-9     6.088639589382981E-9     4.6053597545939976E-9
4.45E-5                   2.3126846280100595E-10   -1.6719973481718204E-9   -3.750969912634584E-9    -5.966365166151469E-9    -7.764404630637416E-9    -3.2339340582379127E-9   -6.653070882845259E-10   1.3552046114305194E-9    2.944257583584885E-9     7.615354115087416E-9     6.0839917593133844E-9
4.4999999999999996E-5     -7.834710011844559E-10   -2.778032970584869E-9    -4.950456327920056E-9    -7.276492849083861E-9    -9.204463320514982E-9    -4.469053634325481E-9    -1.589924854346572E-9    7.493899103809387E-10    2.6132778950420346E-9    9.094311791801957E-9     7.567893933193303E-9
4.5499999999999995E-5     -1.9521314989074177E-9   -3.972176589385148E-9    -6.154232238767829E-9    -8.51461524974511E-9     -1.04962375514061E-8     -5.733801827310132E-9    -2.6222882354337997E-9   1.6552680227349906E-11   2.1125676886375787E-9    1.0458197333394413E-8    9.001629493136743E-9
4.6E-5                    -3.25609034824034E-9     -5.215932991513055E-9    -7.3126521822676215E-9   -9.615685448957095E-9    -1.157092527520766E-8    -6.980411569851652E-9    -3.7307696090485666E-9   -8.444187906683559E-10   1.4384292278265032E-9    1.1637293081552504E-8    1.0323113829671631E-8
4.65E-5                   -4.661553315172218E-9    -6.459771108788777E-9    -8.369738790474852E-9    -1.0511167471810184E-8   -1.2365832941672957E-8   -8.157825738574046E-9    -4.8719467017748195E-9   -1.8267274999150703E-9   5.889702253458004E-10    1.2559541179125893E-8    1.146421069215437E-8
4.7E-5                    -6.120405705227679E-9    -7.64808809772871E-9     -9.267543702117515E-9    -1.1134514105946864E-8   -1.2822932760966328E-8   -9.214943051877382E-9    -5.998579974905822E-9    -2.911737456949173E-9    -4.3604833200634107E-10  1.315089025259695E-8     1.2352573030119265E-8
4.7499999999999996E-5     -7.574823254547709E-9    -8.72486014071324E-9     -9.951174695854394E-9    -1.1425487952391312E-8   -1.2885160485494861E-8   -1.0099280135069382E-8   -7.065297165229336E-9    -4.069392637727927E-9    -1.632837265545912E-9    1.3339012362181911E-8    1.2915214343401067E-8
4.8E-5                    -8.962378680249482E-9    -9.637650597507496E-9    -1.0371751193468369E-8   -1.1332392245056115E-8   -1.249527961263952E-8    -1.0754247683554233E-8   -8.029669386270142E-9    -5.261807586116218E-9    -2.989300693610998E-9    1.3059650357044243E-8    1.3083550057765115E-8
4.85E-5                   -1.0219223065475874E-8   -1.0337752231524479E-8   -1.0485516754223127E-8   -1.0812973980325635E-8   -1.1600644450933671E-8   -1.1120412280902058E-8   -8.850234408099713E-9    -6.447314774339612E-9    -4.480790763361159E-9    1.2262197683922005E-8    1.2798441215147024E-8