% Model:              Untitled.mph
% Version:            COMSOL 6.0.0.405
% Date:               Jul 15 2025, 16:35
% Dimension:          1
% Nodes:              401
% Expressions:        11
% Description:        Point graph
% Time (s)                Displacement field, Y component Displacement field, Y component Displacement field, Y component Displacement field, Y component Displacement field, Y component Displacement field, Y component Displacement field, Y component Displacement field, Y component Displacement field, Y component Displacement field, Y component Displacement field, Y component
0                         -5.762422804908428E-31   -1.2542422298058126E-31  -1.1405461287132026E-31  -1.357360817028792E-31   -1.0038385499827154E-31  -1.9113301308307785E-32  -2.416210374694012E-33   -3.453542781423914E-33   -2.0084623974562204E-34  3.6211117782250184E-30   1.2958597947207164E-30
5.0E-7                    8.979732463425445E-23    7.131564300193737E-24    3.849963127898117E-23    9.563256067228048E-24    2.985135671143801E-24    1.5593010565457142E-24   3.0529287481970517E-24   -4.824534552825206E-26   -1.5494832065452918E-25  9.318380679076134E-22    -1.8549438124890908E-22
1.0E-6                    -1.3534575929444075E-22  -1.6795694352655744E-23  -4.1020786046190987E-23  3.046548634383441E-23    1.2877062497547128E-22   1.1114986399338361E-24   -2.1365342333851932E-23  5.849067442378285E-24    1.1461680322092343E-24   -8.970679305918264E-21   1.5703747625366638E-22
1.5E-6                    1.564955297035986E-23    3.0310301268910284E-23   -1.1861743899068142E-21  -8.934908195560059E-25   -8.036327995301562E-22   -2.017966378554858E-23   4.0382226836313904E-23   -3.1437630462873356E-23  -1.4206821822087201E-24  4.9424294653805174E-20   1.0696159818955992E-21
2.0E-6                    7.344954511539203E-22    4.815652656164004E-22    4.610131127612324E-21    -2.5593156356085587E-22  2.4516871202723923E-21   2.2284160767919776E-22   7.562264559872781E-23    7.228594754417082E-23    -4.392632123487232E-24   -9.036329376788052E-20   -8.48111793340294E-21
2.4999999999999998E-6     -3.811877279680613E-21   -6.738973944130708E-21   2.4626962049366867E-21   1.631945808766909E-22    -3.2951622401386553E-21  -6.809590421414697E-22   -3.4995282936784137E-22  -2.048290057317905E-23   4.1402606180745074E-24   8.453080258252282E-20    3.245166361512372E-20
3.0E-6                    1.9277565927636818E-21   1.4917089802253528E-20   -3.405036803551043E-20   6.264196994928149E-21    -4.548023447951461E-21   -2.1419213349794875E-22  1.3493108197242816E-22   -2.373550319045971E-22   3.294036933370578E-23    1.815311335234588E-19    -6.643538698499085E-20
3.5E-6                    -1.9115731100914416E-20  2.0542878726318283E-20   -1.392163092344396E-20   -1.7571325080511405E-20  2.5928125919916258E-20   3.383182786165979E-21    1.2016219242996659E-21   2.5310474985953553E-22   -2.5405228831455555E-23  -1.1587609758884739E-18  2.7709888450657127E-20
4.0E-6                    1.2542142268336552E-20   -1.5807442051249967E-19  2.202050359064817E-19    -3.3213916341980894E-20  -1.3816399816436214E-20  -3.3508319993276676E-22  -1.5653828568955117E-21  6.265144804669429E-22    -1.9229713643265213E-22  2.9942887105250236E-19   2.4348296893739816E-19
4.5E-6                    -2.408291744058685E-19   -5.864796922876443E-20   1.142053673984249E-19    2.1278915105552356E-19   -1.0633345944798288E-19  -1.3145202817081047E-20  -4.2849226950740465E-21  -5.456430243499053E-22   6.898399018321756E-23    2.806607724526026E-18    -6.540596119337713E-19
4.9999999999999996E-6     -8.48413704897013E-19    8.008102736857409E-19    -1.248464038313043E-18   1.177320657670164E-20    8.76456758587662E-20     -1.3285359770670829E-21  8.133256481039726E-21    -2.8778427071405328E-21  9.726835232747665E-22    -4.238669070834177E-18   2.5584807218818976E-19
5.5E-6                    1.3243154206889556E-18   1.3602919127920422E-19   -1.1004722717015833E-18  -1.4559601282671614E-18  4.708336528886488E-19    5.283338727625485E-20    2.0698203002727083E-20   1.5008937964945885E-21   6.830041838479537E-22    -4.820081942658227E-19   2.1589546301068627E-18
6.0E-6                    5.608659120940569E-18    -3.7127120463115514E-18  5.0165269153239564E-18   6.542253492202083E-19    -2.8512879362917755E-19  2.5534746760636383E-20   -3.1729995826854085E-20  1.1809725000131335E-20   -3.855617701649624E-21   4.0741315122659126E-17   -3.513835871758369E-18
6.5E-6                    -1.4252899258965032E-18  -3.2737790235555462E-18  6.6205025587274056E-18   6.677491611365229E-18    -2.1864633221553907E-18  -1.8472976049340967E-19  -9.351760117179012E-20   -3.2701149788482395E-21  -8.446523034500073E-21   2.7689961613204843E-17   -3.443595907563936E-18
7.0E-6                    -1.670038178800018E-17   7.967395578610671E-18    -1.7120352673213017E-17  -6.693570406444352E-18   4.3206497457148625E-19   -2.1461059199277707E-19  8.569410695289019E-20    -3.756853403073748E-20   7.38819414403084E-21     -1.9491508703611544E-16  1.438778498214237E-17
7.499999999999999E-6      4.738016633765253E-18    1.2566370919076695E-17   -4.076459633746347E-17   -3.111134568588208E-17   8.668428224607741E-18    4.3052930792695295E-19   3.2582811565404503E-19   -1.444500706874651E-20   4.662454829932782E-20    -3.909159005522152E-16   4.0845283013341695E-18
8.0E-6                    3.035405437929832E-17    -2.949407776012952E-17   1.0997430385049652E-17   1.8869527741677212E-17   4.141582541230673E-19    1.0698289884609868E-18   -1.8323425658386112E-19  8.853024294061126E-20    1.8866907479814186E-20   2.809039140026867E-16    -3.714419343092988E-17
8.5E-6                    -1.3498987335548107E-16  -1.6241084880109278E-16  9.878366022758049E-17    7.98079980830417E-17     -3.2927300308302365E-17  -4.634761508749421E-19   -8.927455156806793E-19   1.7673512401155754E-19   -1.6638624876523454E-19  1.9392443136585223E-15   1.3210126460553151E-17
9.0E-6                    -4.140075350980441E-16   -3.5471145086017954E-16  -2.726547345733558E-17   -1.6726906360570058E-16  -1.8094258772195192E-17  -4.891320160912774E-18   6.161288379916325E-19    -9.413502070138394E-20   -2.1038436660926764E-19  1.9866861451329994E-15   1.4666396810260663E-16
9.499999999999999E-6      -2.558138809288122E-16   -3.856679428757517E-16   -5.093082699575577E-16   -5.965579645260235E-16   8.832243234954383E-17    -5.451890513386408E-18   2.5248331166216894E-18   -1.005028701391113E-18   4.449826679409838E-19    -2.9626032209011192E-15  8.569147033055791E-17
9.999999999999999E-6      -2.704534818140233E-16   -4.064062104493974E-16   -1.0564565740724546E-15  -4.313409724789183E-16   5.79621528042685E-17     1.0179371397173529E-17   -3.054516497173326E-18   -6.912819850955197E-19   1.0154276693858027E-18   -9.66428533862935E-15    -1.2972431831233982E-16
1.05E-5                   -3.1535703582029204E-15  -2.3114116015274634E-15  -1.3928385702017962E-15  -2.2222412249190006E-16  -3.4573104769724304E-16  2.7212676762725545E-17   -1.1949492088787392E-17  3.709089906818772E-18    -1.1138197603729387E-18  -4.633678721904951E-15   3.5102147822607464E-16
1.1E-5                    -9.267425965968412E-15   -8.949191826353477E-15   -2.0840503371371433E-15  -2.9875849348644475E-15  -5.824225990177166E-16   -2.6938078757984666E-17  8.254842808625023E-19    5.337724931174595E-18    -4.800388089288206E-18   2.277153029539469E-14    2.030428635457072E-15
1.15E-5                   -1.442399080192822E-14   -2.036463636838705E-14   -5.22930621380952E-15    -1.1426236295174038E-14  1.846382935390948E-16    -1.759746052401956E-16   3.246712858482143E-17    -1.174260288085572E-17   4.711698246264478E-19    5.407928259185321E-14    3.512875562677462E-15
1.2E-5                    -2.3595327626596137E-14  -3.673310136404936E-14   -1.6411545159242096E-14  -2.657775561084078E-14   5.911083363653293E-16    -1.879489346730005E-16   9.22174717911031E-18     -3.279133983494619E-17   1.9195578765472734E-17   3.693867922416666E-14    4.444557799635899E-15
1.2499999999999999E-5     -6.543507787471778E-14   -7.2303921789236E-14     -4.5574167201859284E-14  -5.1403152007773613E-14  -3.003458167074894E-15   2.1654751550005276E-16   -1.2570766438205964E-16  4.730955457998302E-18    1.7664038227813428E-17   -5.0504465668667593E-14  1.191595298669494E-14
1.3E-5                    -1.768162077188273E-13   -1.610605267825551E-13   -9.802739323647477E-14   -9.69604385109978E-14    -1.0238095817849402E-14  4.950243372256286E-16    -2.875901298914957E-16   9.526333579975218E-17    -5.428503985911184E-17   -9.32157482578824E-14    3.669794564057706E-14
1.35E-5                   -3.8462775797382775E-13  -3.557856034568371E-13   -1.676917911708697E-13   -2.0788559003176508E-13  -1.3806890379600577E-14  -9.229783614687558E-16   -3.335433512057991E-16   3.9028984145829843E-17   -1.3908221039981594E-16  1.3479290645101015E-13   7.839390874540119E-14
1.4E-5                    -7.439906997038115E-13   -7.649049057656556E-13   -2.825376336881613E-13   -5.040495651150014E-13   -1.4817972404852907E-14  -4.437392519901242E-15   -2.8767181353416146E-16  -3.359156428259632E-16   -1.3103086328604008E-17  6.847921729358978E-13    1.3695441565747872E-13
1.45E-5                   -1.394872789722397E-12   -1.5786041494042495E-12  -5.951094225902048E-13   -1.1325606808354865E-12  -4.116379020627592E-14   -6.651861296179694E-15   -5.388406857046107E-16   -6.987779145867626E-16   4.0145344692870853E-16   1.1944087107542755E-12   2.673402020697737E-13
1.4999999999999999E-5     -2.5769939688178256E-12  -2.9549453213075564E-12  -1.3496381990171005E-12  -2.106629732046404E-12   -1.2712525731887098E-13  -3.8666831321174086E-15  -2.191234618060148E-15   -3.8972106823085715E-16  5.253866231970213E-16    1.279375238345155E-12    5.935998057667773E-13
1.55E-5                   -4.728329466331323E-12   -4.989345926713494E-12   -2.6270477722022867E-12  -3.4094327847702215E-12  -2.693082183258854E-13   -3.469049579787215E-15   -6.9482717581788066E-15  3.4422627888719243E-16   -5.825425306261909E-16   1.4368635518725788E-12   1.2106656489968396E-12
1.6E-5                    -8.695396684575432E-12   -8.248065572113044E-12   -4.263691358924473E-12   -5.644130839864109E-12   -4.594711457920705E-13   -2.8174565868260184E-14  -1.505248512181199E-14   -4.467355871971555E-16   -2.5328757220219844E-15  3.2350259477071085E-12   2.1293937929195042E-12
1.6499999999999998E-5     -1.5483370638690512E-11  -1.4278250261013767E-11  -6.479193752414193E-12   -1.0297147250078967E-11  -8.118840942912195E-13   -9.362841489746703E-14   -2.411926505027308E-14   -4.95765549138068E-15    -2.4632348878532652E-15  7.975619269415426E-12    3.494392012310074E-12
1.7E-5                    -2.5059509032159783E-11  -2.4344467932945684E-11  -1.0622307272685517E-11  -1.8199381067857135E-11  -1.5865658685549461E-12  -1.80185776633404E-13    -3.6715268177253095E-14  -1.3082977667042032E-14  2.0331089711386728E-15   1.5137806229819883E-11   5.876221246108443E-12
1.75E-5                   -3.5302825683209264E-11  -3.675007293502988E-11   -1.8317042232760132E-11  -2.7268827779941563E-11  -2.9822892243894383E-12  -2.662742778601871E-13   -7.320404299218985E-14   -2.226213642334823E-14   6.790062846551556E-15    2.2780959938269388E-11   1.004499366518168E-11
1.8E-5                    -4.3076386476205096E-11  -4.6827445263773376E-11  -2.888216869775587E-11   -3.3252654825173726E-11  -5.033616704892589E-12   -4.28682265457472E-13    -1.6679841016138706E-13  -3.140376309543023E-14   6.920250615651477E-16    2.96975697887587E-11     1.614832440650258E-11
1.85E-5                   -4.705027434327019E-11   -5.154217043698965E-11   -3.8311507130903224E-11  -3.420406597916038E-11   -7.998590313078118E-12   -8.633265508223852E-13   -3.3647927164927656E-13  -4.847946743777054E-14   -2.1501530423407695E-14  3.645991130146305E-11    2.320783008980137E-11
1.8999999999999998E-5     -4.8847799219851185E-11  -5.292440929226393E-11   -4.268697893511846E-11   -3.308267057388488E-11   -1.2741140379308659E-11  -1.7190716594870552E-12  -5.880306438774345E-13   -9.982072536703142E-14   -4.398139814235671E-14   4.384551260627078E-11    2.970754449714247E-11
1.95E-5                   -5.0535408827017296E-11  -5.415235954138404E-11   -4.2799580188147303E-11  -3.3738653394606074E-11  -2.00450274908467E-11    -2.9772487485224484E-12  -9.80139717031739E-13    -2.299053145989354E-13   -3.87447273165466E-14    5.0944517597196805E-11   3.4572237485418724E-11
1.9999999999999998E-5     -5.141088836486382E-11   -5.334184322220747E-11   -4.319827186447629E-11   -3.5128944754235674E-11  -2.9068245020606585E-11  -4.7165034837885875E-12  -1.6777227601287632E-12  -4.750981079657793E-13   -5.645043507488997E-15   5.575418414541692E-11    3.720886219698263E-11
2.05E-5                   -4.822947939027653E-11   -4.53447788662808E-11    -4.552396104736124E-11   -3.2431747651580074E-11  -3.6899538917721135E-11  -7.487383959545049E-12   -2.8876781355008666E-12  -8.323102654065548E-13   -3.0753952661109184E-15  5.7204484176296613E-11   3.683255072669188E-11
2.1E-5                    -3.8343875930731335E-11  -2.9473003007886486E-11  -4.508075419236063E-11   -2.3618313549940035E-11  -4.035249498362959E-11   -1.195595175010713E-11   -4.756230098419953E-12   -1.3022376168783106E-12  -1.1314792301866154E-13  5.525780739881018E-11    3.267191185411625E-11
2.1499999999999997E-5     -2.161794655367563E-11   -1.0379064543109738E-11  -3.634054917208835E-11   -1.1173151122318858E-11  -3.820457553098553E-11   -1.7746354158637117E-11  -7.395882353275224E-12   -2.036498243552781E-12   -3.4863062537695617E-13  4.877558819963445E-11    2.5167108889554173E-11
2.2E-5                    7.88734826271704E-13     9.825949313288357E-12    -1.9958178211790616E-11  3.525695525937628E-12    -3.137880052770069E-11   -2.2889714385718305E-11  -1.0898005172745796E-11  -3.421599253413995E-12   -6.023886184621467E-13   3.463269136473024E-11    1.601018617360415E-11
2.2499999999999998E-5     2.8830135312000645E-11   3.5259509397194705E-11   -7.562645581350427E-13   2.3411467770399762E-11   -2.1397736255532603E-11  -2.5075245750725346E-11  -1.4946254158800373E-11  -5.86140964754679E-12    -7.443529106487286E-13   1.0065347868286511E-11   6.0173312618485025E-12
2.3E-5                    6.474386169404204E-11    7.026007703068978E-11    2.054187529302112E-11    5.112686935360138E-11    -9.424449775480321E-12   -2.3610996208621874E-11  -1.8214413547834575E-11  -9.344134681756337E-12   -8.301913389390363E-13   -2.4525427647129677E-11  -6.742568881591737E-12
2.35E-5                   1.1199308030203694E-10   1.1478456847284449E-10   4.9304355678426307E-11   8.491075437597205E-11    3.6216588869047146E-12   -1.973979948170536E-11   -1.8572627943715877E-11  -1.3279417319913055E-11  -1.2108146472807144E-12  -6.609763918173782E-11   -2.5851864190073355E-11
2.4E-5                    1.7224426180653516E-10   1.68272899582654E-10     8.972975409050866E-11    1.221371090998685E-10    1.7511343192076414E-11   -1.4910634507164555E-11  -1.4645183128073202E-11  -1.6884326719989922E-11  -2.338801904083098E-12   -1.1238291345516205E-10  -5.343602680737327E-11
2.45E-5                   2.426701743004515E-10    2.328846156670874E-10    1.393213155675149E-10    1.636336119046182E-10    3.397308595615252E-11    -9.211549363878702E-12   -7.409810050889166E-12   -1.9656967378735775E-11  -4.348898319944543E-12   -1.6421307794103515E-10  -8.834437097611292E-11
2.4999999999999998E-5     3.1707832338850476E-10   3.0911494205532406E-10   1.9265372733619667E-10   2.104756778819388E-10    5.6667066424029625E-11   -1.6669682920329059E-12  2.415500458302079E-13    -2.1268651540678928E-11  -6.809928274210574E-12   -2.2434011843767445E-10  -1.2719610265176261E-10
2.55E-5                   3.9080630777958333E-10   3.921028696232207E-10    2.4779113452335513E-10   2.592848588249954E-10    8.867912256149689E-11    8.61007168995954E-12     6.052930032787288E-12    -2.1050451525242583E-11  -8.985691159214114E-12   -2.9433794676361595E-10  -1.6709381347869913E-10
2.6E-5                    4.639521534540453E-10    4.757449478351825E-10    3.064266058807618E-10    3.058610345779679E-10    1.2944729857885299E-10   2.2176407803093864E-11   1.0516039043638943E-11   -1.800203101197103E-11   -1.0423125968400781E-11  -3.726089589537068E-10   -2.076914646204938E-10
2.65E-5                   5.386557072869296E-10    5.568642320656918E-10    3.696151134160984E-10    3.5172011270742716E-10   1.7405391647383606E-10   3.966950685133327E-11    1.6293578605132902E-11   -1.1603534795874586E-11  -1.1258701587862031E-11  -4.5462463523972123E-10  -2.5071431682079503E-10
2.7E-5                    6.13468543968642E-10     6.3204264692089E-10      4.359101715539909E-10    4.0074230161474316E-10   2.1585033698411699E-10   6.142450248584197E-11    2.5739795714615087E-11   -2.3955177638096497E-12  -1.1905650565030008E-11  -5.344557992953814E-10   -2.9705693594640164E-10
2.7499999999999998E-5     6.811368820113861E-10    6.9421218321998E-10      5.02255909931476E-10     4.4914896259108786E-10   2.5073952552060634E-10   8.645200571424268E-11    3.920350013682229E-11    8.68657650490913E-12     -1.2513540026995284E-11  -6.064735047000698E-10   -3.4440223126269573E-10
2.8E-5                    7.313918159066013E-10    7.365715765835595E-10    5.638723715467212E-10    4.851770390127807E-10    2.7989534222414077E-10   1.1247060778416489E-10   5.540374819347908E-11    2.160555088552757E-11    -1.2830796382484515E-11  -6.666820965410037E-10   -3.881064662026514E-10
2.8499999999999998E-5     7.552817485018424E-10    7.570273197924916E-10    6.137614691625553E-10    5.007223341964756E-10    3.0827503271540687E-10   1.37440667052442E-10     7.276399839166449E-11    3.744797603567068E-11    -1.2491898013808458E-11  -7.129038582007961E-10   -4.2395766813752516E-10
2.9E-5                    7.477858603916875E-10    7.544650248820522E-10    6.450758298499675E-10    4.976430835122547E-10    3.39572321205416E-10     1.6092376137980654E-10   9.020041435385129E-11    5.7020597554212125E-11   -1.115243930233005E-11   -7.429549821042326E-10   -4.491206122482936E-10
2.95E-5                   7.074157181178052E-10    7.223203542579908E-10    6.545895695345806E-10    4.793033444225532E-10    3.718656569092487E-10    1.8376238504271392E-10   1.071499375671189E-10    7.933152211509768E-11    -8.202878471065321E-12   -7.517821969024619E-10   -4.6074997694064836E-10
2.9999999999999997E-5     6.326072714407279E-10    6.495841099735183E-10    6.41801768436323E-10     4.408300938028797E-10    3.9769810553992334E-10   2.0643355251958173E-10   1.2329579948491144E-10   1.0185403452336367E-10   -2.5656587013486504E-12  -7.306125387662375E-10   -4.55047417299165E-10
3.05E-5                   5.173791698205632E-10    5.272447270673497E-10    6.033514387504092E-10    3.7230711446943405E-10   4.077458554999644E-10    2.2741819939948864E-10   1.3805232527989013E-10   1.2254451346298895E-10   6.874509234289536E-12    -6.697119258702542E-10   -4.278854412979133E-10
3.1E-5                    3.512715590032656E-10    3.5073949194719937E-10   5.296787918150803E-10    2.683827803725088E-10    3.943828397092339E-10    2.4280066618097775E-10   1.4987334646193596E-10   1.4152120978382504E-10   2.0504600428230634E-11   -5.620047747702063E-10   -3.7541445953025955E-10
3.15E-5                   1.2489918291164895E-10   1.168471991008919E-10    4.0925145409339255E-10   1.2994015408278717E-10   3.533189435357313E-10    2.4789689716656895E-10   1.5615178310688332E-10   1.6047532397221985E-10   3.7736455575057176E-11   -4.0349712339497153E-10  -2.9408551969924066E-10
3.2E-5                    -1.6476715541736988E-10  -1.7835787769639537E-10  2.362268244678394E-10    -4.229569389116879E-11   2.838389125368028E-10    2.4021224850132273E-10   1.5434788155743174E-10   1.801612715371704E-10    5.756198214236631E-11    -1.906758149247857E-10   -1.8117009740082735E-10
3.25E-5                   -5.151404036653022E-10   -5.370536571483855E-10   1.2531330123048436E-11   -2.516762512313479E-10   1.875291948719585E-10    2.2075562232139096E-10   1.4349594359275575E-10   1.9831632125750475E-10   7.922251899380289E-11    8.090439113831106E-11    -3.539820300089802E-11
3.2999999999999996E-5     -9.222391264247776E-10   -9.563093718192928E-10   -2.578463948755261E-10   -5.02592604841095E-10    6.509661664833716E-11    1.9127672565686467E-10   1.2431538436056926E-10   2.1005823067956583E-10   1.0223182456929423E-10   4.1453637842252485E-10   1.437974090875063E-10
3.35E-5                   -1.3818509296632713E-9   -1.4280370706411454E-9   -5.745797531928802E-10   -7.945725647770687E-10   -8.630868473459019E-11   1.496563624412149E-10    9.746359268274481E-11    2.105452905997E-10       1.2588547280899943E-10   8.093002069794937E-10    3.5749608221338334E-10
3.4E-5                    -1.886696701137395E-9    -1.9415895222300273E-9   -9.391260286800035E-10   -1.1187468430972155E-9   -2.716079487790065E-10   8.89544658767266E-11     6.166859620663736E-11    1.9763227327627205E-10   1.4901943655605645E-10   1.2593462993977621E-9    6.063076290219897E-10
3.45E-5                   -2.423947882005684E-9    -2.484967832858859E-9    -1.3475986771565514E-9   -1.4601946381149268E-9   -4.928692774671438E-10   2.1027366568241795E-12   1.3798468662735937E-11   1.7225209806469856E-10   1.7032931718124616E-10   1.7551391253463477E-9    8.875047864605396E-10
3.5E-5                    -2.9753006894291625E-9   -3.0428157752932342E-9   -1.7873109873574811E-9   -1.8056550757076853E-9   -7.462736374963179E-10   -1.1241883716936584E-10  -4.9084132309657687E-11  1.3624902201337268E-10   1.8871955234837456E-10   2.2839374389939164E-9    1.1937200411577915E-9
3.5499999999999996E-5     -3.5181916960319504E-9   -3.594129375937386E-9    -2.241221999680206E-9    -2.1486778886041935E-9   -1.023932214814108E-9    -2.498346819207822E-10   -1.2758471639859789E-10  8.963997089340422E-11    2.0310778190237326E-10   2.8288260919054922E-9    1.5145930043224302E-9
3.6E-5                    -4.02711167297371E-9     -4.113010337904204E-9    -2.695193552510765E-9    -2.484167352787664E-9    -1.3172595348015093E-9   -4.034693971620203E-10   -2.195098557159194E-10   2.9791231615419275E-11   2.1188637446317773E-10   3.36839350544294E-9      1.8387628852710295E-9
3.65E-5                   -4.4747576523392255E-9   -4.5710906233921375E-9   -3.139817432988887E-9    -2.797396796005209E-9    -1.6173640564225098E-9   -5.690729953072007E-10   -3.211255884166877E-10   -4.678253568838926E-11   2.1273056334978453E-10   3.878351054027341E-9     2.1538523585585374E-9
3.7E-5                    -4.831833447960603E-9    -4.938080211282497E-9    -3.564240896557571E-9    -3.061861521471716E-9    -1.9127497641510423E-9   -7.447927851645076E-10   -4.2886933357178584E-10  -1.417768334645664E-10   2.0301500171828814E-10   4.333290252897027E-9     2.4454368066519E-9
3.75E-5                   -5.0655248743488864E-9   -5.1807500695870835E-9   -3.947680489612404E-9    -3.2498056765458565E-9   -2.1881258088103746E-9   -9.277504118342366E-10   -5.402177074341656E-10   -2.5414964388621957E-10  1.8042951674287364E-10   4.70621284259937E-9      2.696937332192837E-9
3.7999999999999995E-5     -5.13969962464679E-9     -5.2636585103365825E-9   -4.256974576512885E-9    -3.3426937062517398E-9   -2.426124343673504E-9    -1.1113958669569466E-9   -6.531711068331873E-10   -3.815861039064494E-10   1.4334197393908819E-10   4.966629359014584E-9     2.8904418758962345E-9
3.85E-5                   -5.018837583344078E-9    -5.152074357165672E-9    -4.4528439605541125E-9   -3.329813946843041E-9    -2.6100103799533137E-9   -1.2860501172333952E-9   -7.646432320465251E-10   -5.225156049294993E-10   9.088072612051472E-11    5.080392862693152E-9     3.0075510272025098E-9
3.9E-5                    -4.672788839441273E-9    -4.814283702148031E-9    -4.499342008518739E-9    -3.198964957730297E-9    -2.724692656664424E-9    -1.4411443945257667E-9   -8.687896901875047E-10   -6.76181503648876E-10    2.2864941622272192E-11   5.012475061215983E-9     3.0302640325431017E-9
3.95E-5                   -4.078070612032533E-9    -4.2222853575259064E-9   -4.368964294265251E-9    -2.931675902978075E-9    -2.755334653432299E-9    -1.5662458424908016E-9   -9.567296680093707E-10   -8.402805937148646E-10   -6.047588348628325E-11   4.7305382132921476E-9    2.9420445797271636E-9
3.9999999999999996E-5     -3.2159326011332996E-9   -3.3530634724040647E-9   -4.041501978938636E-9    -2.5079027357630864E-9   -2.685015980320463E-9    -1.65023997502853E-9     -1.0183787486299624E-9   -1.0082760056989726E-9   -1.5900007224075134E-10  4.207177624063332E-9     2.72828077002468E-9
4.0499999999999995E-5     -2.0716099492320447E-9   -2.191615417701935E-9    -3.5007677964478422E-9   -1.9138327894731414E-9   -2.493852373230146E-9    -1.6807387747138217E-9   -1.0451096447573113E-9   -1.168955120923377E-9    -2.729748909713158E-10   3.421257175114304E-9     2.375772229538392E-9
4.1E-5                    -6.377562921506305E-10   -7.336411495372537E-10   -2.7334861449834687E-9   -1.1447367868179792E-9   -2.1614023608438E-9      -1.6452957294889687E-9   -1.0306548667472638E-9   -1.308739637966436E-9    -4.0273595000565833E-10  2.359439006328747E-9     1.8725891499212025E-9
4.15E-5                   1.079904457486469E-9     1.0140307618650916E-9    -1.7306171607455903E-9   -2.0251761120648952E-10  -1.6719260391034857E-9   -1.5331259630372664E-9   -9.69246930295534E-10    -1.4148597734196869E-9   -5.477821773914619E-10   1.0174849788964041E-9    1.2097857643353904E-9
4.2E-5                    3.0593009454374552E-9    3.033498595941685E-9     -4.889869758506637E-10   9.059633457841871E-10    -1.0193753314266718E-9   -1.3350410769433381E-9   -8.532857298011001E-10   -1.477055385640104E-9    -7.059975022774657E-10   -5.9924799571764E-10     3.8435718403552713E-10
4.2499999999999996E-5     5.263113194738721E-9     5.293423350540197E-9     9.875044391084892E-10    2.166522046325822E-9     -2.0857494540942903E-10  -1.0420026296609067E-9   -6.737968149778031E-10   -1.4869895690205706E-9   -8.734793768477439E-10   -2.4749559291302806E-9   -5.986227495614903E-10
4.2999999999999995E-5     7.641562315282034E-9     7.74554540719408E-9      2.685672066195124E-9     3.555191633837394E-9     7.479944407000038E-10    -6.453633696344529E-10   -4.239815674646163E-10   -1.4363518846299965E-9   -1.0446794396752927E-9   -4.580871612790186E-9    -1.7256577070807518E-9
4.35E-5                   1.0133033266396535E-8    1.0324471713910673E-8    4.57905310730758E-9      5.039800312845195E-9     1.83458931444348E-9      -1.4029116035580345E-10  -1.0270928554748987E-10  -1.3153808499588622E-9   -1.2122556469236675E-9   -6.872307051466655E-9    -2.975383784031853E-9
4.4E-5                    1.2662006658015996E-8    1.2951034342424395E-8    6.6244292978002826E-9    6.582663307624424E-9     3.0335812276911243E-9    4.702836759249234E-10    2.850401749111261E-10    -1.1131544718155368E-9   -1.3666120363534306E-9   -9.288021686687586E-9    -4.318910898717437E-9
4.45E-5                   1.5137053362934343E-8    1.553411754276672E-8     8.762660926195428E-9     8.139453054130683E-9     4.322410394129905E-9     1.1749734245036217E-9    7.305338884571225E-10    -8.198772701596525E-10   -1.4957917642955097E-9   -1.1752558329573705E-8   -5.719993471379165E-9
4.4999999999999996E-5     1.7451649860889156E-8    1.7968766105294687E-8    1.0924477572663925E-8    9.656436576079135E-9     5.6686949238071775E-9    1.9566657701602584E-9    1.2237780100010674E-9    -4.300355031371028E-10   -1.5862709629060254E-9   -1.4179049282151853E-8   -7.13559705120704E-9
4.5499999999999995E-5     1.9488756996917576E-8    2.0135903780511563E-8    1.3036446171900857E-8    1.1072281182710656E-8    7.0278476118197595E-9    2.795162157618671E-9     1.7540128878987589E-9    5.5447939776055467E-11   -1.6243865593389175E-9   -1.6470191533245396E-8   -8.516774694364062E-9
4.6E-5                    2.1128185500462765E-8    2.1908668185152013E-8    1.50213168016334E-8      1.2323944646800551E-8    8.345518568763636E-9     3.666895395632229E-9     2.308210585375535E-9     6.29308871673515E-10     -1.5975661979836754E-9   -1.8518532903429223E-8   -9.809397505461711E-9
4.65E-5                   2.225375147727925E-8     2.3161959692789048E-8    1.6793278982143688E-8    1.3349797530175743E-8    9.562918570775193E-9     4.54265811596862E-9      2.869094494962035E-9     1.2798900018056714E-9    -1.494810713287923E-9    -2.0209306416845504E-8   -1.0955057047675376E-8
4.7E-5                    2.2756787820856712E-8    2.3778262903744467E-8    1.8255693343850067E-8    1.4087912572893712E-8    1.0620592022447761E-8    5.386388573811757E-9     3.4142604762307193E-9    1.99317296961608E-9      -1.3066406644757378E-9   -2.142678816907717E-8    -1.189302482200827E-8
4.7499999999999996E-5     2.2536088972099687E-8    2.364915136623027E-8     1.9307183207995148E-8    1.4475456613495006E-8    1.1458334156092318E-8    6.156539944011533E-9     3.916944754298335E-9     2.753117997572746E-9     -1.0251764711151267E-9   -2.206132286653554E-8    -1.2563148889908806E-8
4.8E-5                    2.149915144289921E-8     2.267796340776476E-8     1.9852600254767953E-8    1.4453448940344255E-8    1.2013596171203301E-8    6.808823848368971E-9     4.34774530383817E-9      3.5399336306321302E-9    -6.448316164925091E-10   -2.2013790598798875E-8   -1.2908290932091414E-8
4.85E-5                   1.9569319837806853E-8    2.078661427724534E-8     1.9809975995605427E-8    1.3973112327196972E-8    1.2222531161722895E-8    7.298387196418627E-9     4.676140464344971E-9     4.32772662994179E-9      -1.6352502296152654E-10  -2.1197813530735673E-8   -1.2875655856523342E-8