% Model:              Untitled.mph
% Version:            COMSOL 6.0.0.405
% Date:               Jul 16 2025, 16:24
% Dimension:          1
% Nodes:              401
% Expressions:        11
% Description:        Point graph
% Time (s)                Displacement field, Y component Displacement field, Y component Displacement field, Y component Displacement field, Y component Displacement field, Y component Displacement field, Y component Displacement field, Y component Displacement field, Y component Displacement field, Y component Displacement field, Y component Displacement field, Y component
0                         -1.8855893793949897E-31  -1.3749882281239317E-31  -2.503328946681589E-32   1.1706214690345617E-32   2.9345853287466226E-33   6.451443965568452E-35    -1.3742881299451965E-35  1.217570265912774E-35    1.3113961413875593E-34   -5.604958267850335E-38   -3.987215842892502E-38
5.0E-7                    1.978125050544504E-23    1.358338899729651E-23    1.552794993440366E-23    3.5859842124308954E-24   -9.992325992980302E-25   8.309541444257931E-27    -2.7634427204254855E-28  3.865689843901608E-27    -2.0390231182825087E-24  -2.3190661564092086E-29  3.770875393184078E-30
1.0E-6                    1.231001589966224E-22    -3.3853222587892126E-22  -8.175616606591704E-23   -4.980334118236851E-23   5.835902170195652E-24    -1.3453011388698262E-25  1.4288901411785937E-26   -4.2903429885607783E-26  4.345608681457874E-24    2.7079879962418684E-28   1.9012462444869534E-29
1.5E-6                    1.8356742913662243E-21   2.827972865820197E-21    -1.5865794359502345E-22  -2.5787078283373543E-23  -7.096434768125943E-24   -5.330926673492811E-25   2.1185472715126165E-25   -8.544203386213485E-26   4.420441872464972E-23    4.591647578711734E-28    -1.238932176332966E-28
2.0E-6                    -1.0696311993239072E-20  -3.41729679764408E-21    1.2104946205131523E-21   1.086154990339886E-21    -5.995171482993093E-23   6.455889555297398E-24    -2.0236296214683474E-24  1.1367989741183028E-24   1.4592452495122522E-23   -1.0241941777601573E-26  6.34683067577607E-29
2.4999999999999998E-6     -1.7666790288738666E-20  -2.893491481095757E-20   2.1266515428672682E-21   -2.025990493565785E-21   9.454029805875018E-23    8.854846318942539E-25    1.4106717385625063E-24   1.722224552445805E-24    -9.176772758761354E-22   1.130220612291801E-26    1.76853328216776E-27
3.0E-6                    1.78724617031854E-19     9.857479570671589E-20    -1.578817705238634E-20   -8.842876334953299E-21   5.902008146997393E-22    -1.3053273327594223E-22  3.5702763151938094E-23   -2.1052997752084925E-23  -4.768301813695118E-22   1.0636518390345343E-25   -6.203111788265797E-27
3.5E-6                    3.019215663453846E-20    1.0880142501920806E-19   -1.3664508625699803E-20  3.4606474310175086E-20   -7.228957864921705E-23   2.772757307333405E-22    -8.154375945865311E-23   -9.594194073943488E-24   8.659538471246898E-21    -1.2009710514340228E-25  -1.3295913231934608E-27
4.0E-6                    -1.3298993778803435E-18  -8.328728763595426E-19   1.5586145410759686E-19   4.024449401016035E-20    -7.721115316168768E-21   8.810907713061643E-22    -3.4798822971995007E-22  2.095529575862819E-22    1.2516233513010174E-20   -6.582429092721297E-25   5.808306770153894E-26
4.5E-6                    -3.593233253874072E-19   -4.493578516741303E-19   6.68902799938226E-20     -2.674589311067321E-19   1.8208295679843306E-22   -3.632878386456735E-21   1.1691755493937006E-21   9.171459504984545E-23    -5.679937771380385E-20   -2.656188653841988E-25   -1.2300205834618697E-25
4.9999999999999996E-6     6.729159647036318E-18    5.2626138640534826E-18   -1.1328001693623743E-18  -2.3036006671656615E-19  7.070217185456127E-20    -2.7953741747365695E-21  2.484202763927402E-21    -1.5484550906866704E-21  -1.628421407393799E-19   3.1362111253935042E-24   -1.506661156281158E-25
5.5E-6                    6.089990435356101E-18    4.64272601815193E-18     -7.100333018435942E-19   1.4586991004351072E-18   -8.937539049626438E-21   2.8605349253686014E-20   -1.0110354744459164E-20  -1.191428394926039E-21   2.4435512726572603E-19   1.1813780429573502E-23   1.0606198143882588E-24
6.0E-6                    -2.2143455373678E-17     -2.4880870694304294E-17  6.390387237051678E-18    1.8480412625817926E-18   -4.658424800120169E-19   1.796707765354242E-21    -1.5848590109759665E-20  9.09581632699082E-21     1.2914804845716003E-18   -5.0881997490714524E-24  -8.397600127646615E-25
6.5E-6                    -4.202316614150876E-17   -3.831795561594612E-17   8.05475249220382E-18     -5.854780200406044E-18   7.765969411291907E-20    -1.8056310622113868E-19  6.278667024102325E-20    1.1519289581654063E-20   -3.5669965329204236E-19  -1.170889035571472E-22   -4.864455230205874E-24
7.0E-6                    3.470551959929421E-17    8.129397301599536E-17    -2.465260435399566E-17   -1.1654473021780896E-17  2.596986752222618E-18    1.8668033949518347E-20   9.99347054729521E-20     -4.1140583403556425E-20  -7.276800354435986E-18   -1.0237106146713079E-22  1.1162307543844803E-23
7.499999999999999E-6      1.6497408591294456E-16   2.1976352680206557E-16   -5.729170539251794E-17   1.7598066572093475E-17   2.015903807464285E-19    1.026149565575914E-18    -2.932943232632352E-19   -7.991638097181558E-20   -4.650564749429522E-18   7.249175973530132E-22    1.3796525170405502E-23
8.0E-6                    7.116402982076277E-17    -9.329477033515225E-17   4.595817645482759E-17    5.76877774836707E-17     -1.1735815848421388E-17  1.4155357177150422E-19   -5.854994339650498E-19   1.3153402703716032E-19   2.8127985054773484E-17   1.3238583627176842E-21   -7.711810471505235E-23
8.5E-6                    -3.34632110081403E-16    -7.656484000748526E-16   2.6582967098489775E-16   -2.5679475456285453E-17  -4.282269347253123E-18   -5.02370571282634E-18    1.0123148218313226E-18   4.117523796408831E-19    4.458810817482471E-17    -3.0788925374712375E-21  -1.979250763588263E-23
9.0E-6                    -4.569794095903727E-16   -4.1619316752060296E-16  1.38962474435337E-16     -2.0623409328406064E-16  4.883996373705377E-17    -2.8342354362046918E-18  2.961549371500112E-18    -2.110580918137935E-19   -6.792331900967639E-17   -9.552974166153548E-21   4.357317898768693E-22
9.499999999999999E-6      2.796851796625221E-16    1.5932288511021985E-15   -6.959061070143442E-16   -3.2161462744445497E-17  4.960454924286075E-17    2.1022943401422627E-17   -2.082370982680255E-18   -1.5804951211775006E-18  -2.3442196561542383E-16  7.468794481690016E-21    -1.1443582443471898E-23
9.999999999999999E-6      1.0775080289150532E-15   2.643729732451522E-15    -1.230277874183665E-15   6.440165721102348E-16    -1.3391797083289077E-16  2.5675881824730228E-17   -1.203745542729089E-17   -4.718461311996048E-19   -1.231486718417351E-17   4.8525890478382796E-20   -2.2477491732721195E-21
1.05E-5                   5.828556312754732E-16    -2.0221249888084363E-16  6.302476243979205E-16    6.533099251934167E-16    -2.310987492691077E-16   -6.313379757255526E-17   -9.938428606618365E-19   4.434396631581263E-18    7.435205708597797E-16    5.163859701401604E-21    -3.2597507935776077E-22
1.1E-5                    -3.0231365915611236E-16  -4.53218582411078E-15    4.423380524315731E-15    -1.017003507672156E-15   3.5335696508933104E-16   -1.3656402592739867E-16  3.8754123745036263E-17   4.806430867428778E-18    7.811615556411177E-16    -1.8617321341510655E-19  9.954091298804896E-21
1.15E-5                   9.577025288332468E-16    -4.360415337686778E-15   4.0658217972476335E-15   -2.0924997207509897E-15  1.2025435830116433E-15   1.2608579663130034E-16   3.2615641161334625E-17   -7.929771893119612E-18   -1.5066140973165649E-15  -1.6663326535646097E-19  5.049904867335679E-21
1.2E-5                    2.9892059577538872E-15   2.627816719181034E-15    -5.7261441750559725E-15  1.4700798059575186E-15   3.684935773727045E-16    5.774764268967633E-16    -8.687715676968847E-17   -1.8255469216804455E-17  -4.0499076538836774E-15  4.965536554935153E-19    -3.786365000442217E-20
1.2499999999999999E-5     -1.9066083908668534E-17  1.4331991140577347E-14   -1.501833994895117E-14   8.224939653934658E-15    -2.1877718811524427E-15  1.417827405070996E-16    -1.5405623866020566E-16  4.3661030950877885E-18   -5.985581218352015E-16   9.244112338125935E-19    -4.1899133838626443E-20
1.3E-5                    -5.642924828758246E-15   2.6656159059714616E-14   -6.957452559372036E-16   9.217809047721947E-15    -8.91823344564549E-16    -1.4752695923504551E-15  1.1911114193843908E-16   4.525561445094628E-17    9.011232793297853E-15    -7.883520951414061E-19   1.0222539645305052E-19
1.35E-5                   7.0960777029984275E-15   3.021280156270873E-14    3.882135277877953E-14    1.704125642954335E-16    9.272397561794099E-15    -1.4436544423962473E-15  5.08432989428514E-16     2.9232052613404317E-17   9.188657976679975E-15    -3.494682130367923E-18   1.9440202690099974E-19
1.4E-5                    5.513831983959248E-14    1.6752489227790473E-14   6.02672794524085E-14     -2.6723207320379794E-15  1.9931267794963542E-14   3.2243577544143542E-15   1.7211385759683824E-16   -6.317305669789703E-17   -1.4967930335954878E-14  -1.2005609069832384E-18  -2.1349531459017863E-19
1.45E-5                   1.0397284041686883E-13   3.688482739501193E-15    2.6780320592340144E-14   3.152663801199034E-14    1.5949454776262735E-14   7.857681865650663E-15    -9.345084436270335E-16   -9.499520058797906E-17   -4.3698094598967484E-14  7.696869877246527E-18    -7.967196805467385E-19
1.4999999999999999E-5     7.609716526202594E-14    3.922868377463064E-14    -1.2768428501008773E-14  1.1023635286648013E-13   9.887699418382621E-15    1.9876258329685296E-15   -9.151044537907851E-16   6.50758232278902E-17     -3.109723194288885E-14   9.19503794433824E-18     -1.1500135142776535E-19
1.55E-5                   -2.0864834610630014E-14  1.7418792522860222E-13   5.014058746170837E-14    1.922042017520042E-13    5.37951844919806E-14     -1.1120763194979202E-14  1.7980669952816713E-15   2.5799040116666824E-16   2.221123856189387E-14    -1.3364039666498768E-17  1.752106763090217E-18
1.6E-5                    3.1114537202334375E-14   4.572132419217172E-13    2.6707082858506496E-13   2.5380889034925176E-13   1.8381475896166114E-13   -3.959174023721622E-15   4.570829693461827E-15    1.6201880169696757E-16   2.8139160305065977E-14   -4.2921413910414693E-17  6.839226176338834E-19
1.6499999999999998E-5     5.126854851468728E-13    9.367234160051118E-13    6.264624809076089E-13    4.1840154798934123E-13   3.687697329508274E-13    4.2502571205764465E-14   2.5426735598139855E-15   -1.0608318078496007E-16  -1.0368297214920529E-13  -2.649708941466892E-17   -6.0331861208478734E-18
1.7E-5                    1.3350092383189344E-12   1.5390232711694364E-12   1.187152151631466E-12    9.410972057208963E-13    5.790751033012338E-13    9.393604146079985E-14    -2.08843798657795E-15    1.5824747640799244E-16   -3.45864177492124E-13    4.2982934844435834E-17   -9.872340322839298E-18
1.75E-5                   1.8667808301517046E-12   1.9440471156876745E-12   2.093035142879634E-12    1.9646069086472454E-12   9.267561768984647E-13    9.403520520948245E-14    3.391324109114013E-15    1.2598401503046811E-15   -5.816220966126324E-13   3.727575849634362E-17    -4.016410466091688E-19
1.8E-5                    1.5918817402606225E-12   1.969818296037231E-12    3.469506039632351E-12    3.4275601865853112E-12   1.701371851996875E-12    7.76896683841544E-14     2.7701014328996537E-14   2.2969296510121863E-15   -7.740777794505768E-13   -2.1674699085640975E-16  1.5428777806482463E-18
1.85E-5                   1.1838872024349236E-12   2.5032692053596453E-12   5.669514598032985E-12    5.5209532889176475E-12   3.3085432103659344E-12   2.1089752069523744E-13   5.858756651661953E-14    2.792276644822996E-15    -1.0892453345143132E-12  -6.437328713558081E-16   -5.217169158350157E-17
1.8999999999999998E-5     2.620352846690964E-12    5.736320758683726E-12    9.79269044323947E-12     9.174087990107859E-12    6.272595162563183E-12    6.323852204055811E-13    7.834669428268291E-14    5.591899765352692E-15    -1.8983306490853047E-12  -8.466469303383383E-16   -1.5032333194328904E-16
1.95E-5                   7.666818473767978E-12    1.345361669111725E-11    1.7237778414706186E-11   1.5480266782292254E-11   1.1167601852023813E-11   1.2694087282026935E-12   1.1209886405152905E-13   1.533678430778692E-14    -3.712727688524244E-12   -7.842007947900888E-16   -1.9447016571799196E-16
1.9999999999999998E-5     1.6148060405803126E-11   2.4564370008005185E-11   2.7729188327337464E-11   2.4231000355261958E-11   1.811727923477241E-11    1.9801520386603084E-12   2.450476118809768E-13    3.1231131244071704E-14   -6.979684512844105E-12   -1.7587174606585298E-15  -2.3144485214349934E-16
2.05E-5                   2.6213297718942045E-11   3.515162994932102E-11    3.807920560431832E-11    3.3458428934748514E-11   2.6140667822573217E-11   3.021259553849165E-12    5.53665386424452E-13     4.657680405010137E-14    -1.1677407683034824E-11  -6.003039042549546E-15   -7.034649997251203E-16
2.1E-5                    3.660105313570513E-11    4.213678042510816E-11    4.4565413140434585E-11   4.106760179488893E-11    3.3371895644029156E-11   5.235880412055842E-12    1.0210404365763031E-12   6.785862060331091E-14    -1.7070631817218438E-11  -1.4225408520697858E-14  -2.102004113409998E-15
2.1499999999999997E-5     4.8062244664455655E-11   4.677950282192129E-11    4.727573671096113E-11    4.667768138661492E-11    3.843214899827206E-11    9.402133921665056E-12    1.6058396335535857E-12   1.3551327828217327E-13   -2.2120653136161912E-11  -2.4517703147197197E-14  -4.294423144594143E-15
2.2E-5                    6.165174947353812E-11    5.328018549457833E-11    5.0484540661607385E-11   5.104334182902603E-11    4.147532331685307E-11    1.5181765709700238E-11   2.4979619852466925E-12   3.0378219542852556E-13   -2.6282927710041952E-11  -3.75346273704362E-14    -7.127653005234166E-15
2.2499999999999998E-5     7.56416702663239E-11     6.328650795272817E-11    5.6890383326573075E-11   5.365983180917949E-11    4.337420623775271E-11    2.0934441030853194E-11   4.275996561358983E-12    5.810276533252987E-13    -2.969875308185529E-11   -6.561142614558856E-14   -1.2696268460538887E-14
2.3E-5                    8.530730878486226E-11    7.254847863369788E-11    6.229726652460251E-11    5.1965891752028684E-11   4.3886037115585026E-11   2.492814591678133E-11    7.599668021029097E-12    9.166423798185243E-13    -3.242770162234248E-11   -1.3370222301012697E-13  -2.6232876312119572E-14
2.35E-5                   8.677090188329877E-11    7.377667069287512E-11    5.840216975268385E-11    4.356271862358053E-11    4.1218481143668364E-11   2.6732241498736652E-11   1.2533446988723191E-11   1.3094426042070642E-12   -3.37487700807509E-11    -2.6519050652306587E-13  -5.3343563086545437E-14
2.4E-5                    8.052124517213727E-11    6.235182699773944E-11    4.112232459001686E-11    2.8583039512130668E-11   3.359172348056751E-11    2.715355591082707E-11    1.8202858561422892E-11   1.9559719521189036E-12   -3.260013939918935E-11   -4.690429709335497E-13   -9.864809559970173E-14
2.45E-5                   6.949726449492152E-11    3.855335717894344E-11    1.3867247142874267E-11   8.84050521516224E-12     2.0601570473829466E-11   2.6855680647188214E-11   2.3360298553029323E-11   3.2423337650777825E-12   -2.8598379188282933E-11  -7.578681790291862E-13   -1.7344224547175006E-13
2.4999999999999998E-5     5.288820140369857E-11    4.9420008220511425E-12   -1.8449459049647645E-11  -1.5425688419093885E-11  2.5813280932770585E-12   2.5472315569648642E-11   2.7420035728283963E-11   5.5143213465082475E-12   -2.210224108340312E-11   -1.1975883064056006E-12  -3.0747192898470127E-13
2.55E-5                   2.2976155566425222E-11   -3.68239166975298E-11    -5.627416526419792E-11   -4.7056926279687446E-11  -2.0889392494852552E-11  2.217012752285821E-11    3.0763229313502856E-11   8.816242480165316E-12    -1.3072178210963066E-11  -1.935378711203336E-12   -5.477564587681992E-13
2.6E-5                    -2.991214515801133E-11   -8.639938525105177E-11   -1.0388263247751044E-10  -8.954324538022481E-11   -5.1150692924015646E-11  1.649562539740819E-11    3.3795999549123436E-11   1.2829283289147393E-11   -2.2871947935220984E-13  -3.1382175467564214E-12  -9.424764629118346E-13
2.65E-5                   -1.0847970076178267E-10  -1.4378769912769983E-10  -1.6233494087894227E-10  -1.433430660157694E-10   -8.929128302632475E-11   8.152852832377422E-12    3.5768792545483496E-11   1.7002590741911964E-11   1.8393116147556862E-11   -4.839943152137522E-12   -1.5380373446134694E-12
2.7E-5                    -2.050475325725863E-10   -2.0942394356061845E-10  -2.2745460062218617E-10  -2.052872679355675E-10   -1.3539202677158208E-10  -3.7337721250644564E-12  3.4792388187342895E-11   2.0686263543998147E-11   4.4274057972090147E-11   -6.792643587821242E-12   -2.408153392528346E-12
2.7499999999999998E-5     -3.0757986229708473E-10  -2.8446004078373263E-10  -2.956725319619904E-10   -2.7162282632542604E-10  -1.8887877453287994E-10  -2.04426897856857E-11    2.912316135680352E-11    2.3175898876077225E-11   7.785501529701578E-11    -8.452624222368612E-12   -3.6704169240392E-12
2.8E-5                    -4.086936064791747E-10   -3.691218355617395E-10   -3.6888110540681227E-10  -3.407537634035402E-10   -2.489458655234493E-10   -4.2659978733038384E-11  1.8313524627135432E-11   2.3766274071814654E-11   1.1850039620254342E-10   -9.163295203451432E-12   -5.409713915365949E-12
2.8499999999999998E-5     -5.082691605781701E-10   -4.6020937323003663E-10  -4.505843098080884E-10   -4.123315924816836E-10   -3.141937435110452E-10   -7.012846223846084E-11   3.052603329942316E-12    2.1918831659125204E-11   1.6437929634524667E-10   -8.478664090218855E-12   -7.508132795031984E-12
2.9E-5                    -6.080023822826101E-10   -5.512066424939904E-10   -5.379388884095895E-10   -4.842595724841382E-10   -3.819956357686221E-10   -1.0239259214588743E-10  -1.5991656573437926E-11  1.7518286892992534E-11   2.1275701981744285E-10   -6.466752546586505E-12   -9.526700641882147E-12
2.95E-5                   -7.049865206679356E-10   -6.355897455689395E-10   -6.20426665520569E-10    -5.517726187485946E-10   -4.4860912503383664E-10  -1.3939728314130113E-10  -3.913266444859952E-11   1.1073914253512982E-11   2.614186583190567E-10    -3.7770769527274485E-12  -1.0816442705337523E-11
2.9999999999999997E-5     -7.911253379665286E-10   -7.09432645636537E-10    -6.872812335636534E-10   -6.095568517367558E-10   -5.101990327067718E-10   -1.8100327049252904E-10  -6.767523775027122E-11   3.6087090498468235E-12   3.102167368312376E-10    -1.3181732262807443E-12  -1.0857456813617471E-11
3.05E-5                   -8.574882595138614E-10   -7.698558878180216E-10   -7.340980550788527E-10   -6.535162796437331E-10   -5.636985100766163E-10   -2.2611261330600087E-10  -1.0312153944283016E-10  -4.007087406606476E-12   3.606852031969002E-10    3.5248910913670376E-13   -9.57999539029864E-12
3.1E-5                    -8.975868662112149E-10   -8.110777011243304E-10   -7.600648910019924E-10   -6.794755821475152E-10   -6.061804550738943E-10   -2.724935416946677E-10   -1.4617257365972268E-10  -1.2077534104875735E-11  4.133564181000588E-10    1.5023602927880997E-12   -7.380016444580146E-12
3.15E-5                   -9.062718951577919E-10   -8.230576032065693E-10   -7.59680819430709E-10    -6.807308112607067E-10   -6.329608181599493E-10   -3.1736919860649945E-10  -1.960621073437769E-10   -2.258391215893022E-11   4.648905569761893E-10    3.1285962568239247E-12   -4.792597909046627E-12
3.2E-5                    -8.767876396638797E-10   -7.948009548250433E-10   -7.20248340261041E-10    -6.4825385031713E-10     -6.366310589184481E-10   -3.582150861728419E-10   -2.50467023554582E-10    -3.8338325575707725E-11  5.075081752808717E-10    6.334608026730404E-12    -2.0948400776052724E-12
3.25E-5                   -8.001755401102564E-10   -7.189626393312027E-10   -6.290039239305652E-10   -5.738959655195295E-10   -6.087339458861796E-10   -3.932934018662329E-10   -3.0598120518579314E-10  -6.114287046199295E-11   5.315222221161211E-10    1.1725957673718091E-11   8.566839751829572E-13
3.2999999999999996E-5     -6.677352339733859E-10   -5.9290649878922E-10     -4.811977924622668E-10   -4.5301511148558535E-10  -5.427052952866095E-10   -4.212823816118784E-10   -3.590431032408392E-10   -9.046505449125635E-11   5.295843318773958E-10    1.9290391641535603E-11   4.525585520876022E-12
3.35E-5                   -4.736718353550453E-10   -4.153081180811506E-10   -2.792258336047552E-10   -2.8378549939763686E-10  -4.349304761902475E-10   -4.3960266986202944E-10  -4.069928141720068E-10   -1.2376682109387605E-10  4.995757332361833E-10    2.864908886210128E-11    9.548029334523493E-12
3.4E-5                    -2.1539228702919446E-10  -1.8211027973119252E-10  -2.4598596125368484E-11  -6.456608191134226E-11   -2.830129252383944E-10   -4.427234414656177E-10   -4.4837914699833516E-10  -1.5806681865276644E-10  4.432342845360267E-10    3.926359737516322E-11    1.6659968623791138E-11
3.45E-5                   1.0804106456584284E-10   1.1384529899198225E-10   2.863695894755409E-10    2.072971667149548E-10    -8.380226169338728E-11   -4.2284859943680494E-10  -4.815718510319957E-10   -1.9140661084331005E-10  3.6099509990492467E-10   5.0499104008311885E-11   2.6556596952182993E-11
3.5E-5                    4.968994337902785E-10    4.789720362997594E-10    6.576195084090504E-10    5.338584896658586E-10    1.6617824168711704E-10   -3.73251662510625E-10    -5.022652077782708E-10   -2.2338295645635382E-10  2.4785006804567303E-10   6.178530671072535E-11    3.9547887228029684E-11
3.5499999999999996E-5     9.498082000111559E-10    9.141007567588622E-10    1.085819625045647E-9     9.136498072098635E-10    4.684737015186417E-10    -2.9113960200070425E-10  -5.02505682305273E-10    -2.5468427184359584E-10  9.480735886010508E-11    7.290455336865848E-11    5.521625472057365E-11
3.6E-5                    1.4615496095267843E-9    1.411900544044836E-9     1.559490473137234E-9     1.3396807682056746E-9    8.212686219118867E-10    -1.7711288086252276E-10  -4.733588762134351E-10   -2.8576401287022334E-10  -1.0534819175320859E-10  8.404666220466338E-11    7.2469623957788E-11
3.65E-5                   2.0212955306550577E-9    1.9569719120416887E-9    2.0642619149522655E-9    1.7994916763429315E-9    1.2197555585084927E-9    -3.219661107073668E-11   -4.095033514375321E-10   -3.150491235652485E-10   -3.5396581974726836E-10  9.540900520055649E-11    9.004757416974065E-11
3.7E-5                    2.6121119358123687E-9    2.527213314217622E-9     2.585850408084551E-9     2.277031417351664E-9     1.6564494196618398E-9    1.4422365393892682E-10   -3.1101097750269124E-10  -3.37860898072154E-10    -6.473811594736982E-10   1.0666722761819894E-10   1.0703842657482791E-10
3.75E-5                   3.2114048091617567E-9    3.095945721632457E-9     3.1068724803125377E-9    2.7550138568243935E-9    2.119906146405903E-9     3.5418967624163356E-10   -1.7984269433504456E-10  -3.47340753761758E-10    -9.79758679302313E-10    1.1682873966413608E-10   1.229527693744114E-10
3.7999999999999995E-5     3.791604949826277E-9     3.6352719552913766E-9    3.602978626957615E-9     3.215792407693865E-9     2.5933530935073176E-9    5.999883088683984E-10    -1.453325160999045E-11   -3.371588046627058E-10   -1.343839269423791E-9    1.2457211236769374E-10   1.3739747205595166E-10
3.85E-5                   4.320812073702045E-9     4.119658035699711E-9     4.044310707541497E-9     3.6396688263993887E-9    3.0556366342466924E-9    8.828877123691988E-10    1.9074114835782266E-10   -3.0401981311396265E-10  -1.7300020788829172E-9   1.2872253302802682E-10   1.4975302750465557E-10
3.9E-5                    4.76363951977861E-9      4.526634114061489E-9     4.400185611291155E-9     4.002003414732302E-9     3.483743284222618E-9     1.2010150425150663E-9    4.4089928913341146E-10   -2.4814389768434984E-10  -2.126396004328558E-9    1.2845604914437512E-10   1.590766217478394E-10
3.95E-5                   5.082538221314493E-9     4.83276529590162E-9      4.640823483857052E-9     4.272299637532419E-9     3.8537420064402006E-9    1.5464851745838452E-9    7.336541602916551E-10    -1.7179006904207045E-10  -2.519850809846635E-9    1.2304416648371264E-10   1.6410506525420473E-10
3.9999999999999996E-5     5.239473128061561E-9     5.007527669365912E-9     4.735370890082472E-9     4.417099632037417E-9     4.1395609144803426E-9    1.9042824415664345E-9    1.058867786312327E-9     -7.720040098709742E-11   -2.895015219690288E-9    1.1127110992170048E-10   1.6322636717639801E-10
4.0499999999999995E-5     5.197598917310683E-9     5.010686603159009E-9     4.651261087102356E-9     4.4047691261236306E-9    4.312807742823458E-9     2.2548166490330578E-9    1.4043302086898187E-9    3.5009419972691496E-11   -3.2322112725550158E-9   9.104933000789985E-11    1.5451782646989253E-10
4.1E-5                    4.9228844541274485E-9    4.7967432804515904E-9    4.357311982647821E-9     4.208140624085177E-9     4.345531528374166E-9     2.5781863535583017E-9    1.7618910485393654E-9    1.6668214024462854E-10   -3.507609040303462E-9    5.987337480885602E-11    1.3595583837278738E-10
4.15E-5                   4.385851100137405E-9     4.324782786876528E-9     3.826942688731495E-9     3.803449306697022E-9     4.212947159764715E-9     2.856227410276641E-9     2.127584564372533E-9     3.2173361071375635E-10   -3.6964870413197836E-9   1.6083800062610144E-11   1.0567179811020028E-10
4.2E-5                    3.5631081207332886E-9    3.5681080546080915E-9    3.0385830983057325E-9    3.1686243553017983E-9    3.892395576949522E-9     3.0714395972748772E-9    2.495502948040467E-9     5.040935444515639E-10    -3.775588085293311E-9    -4.0145812269979794E-11  6.208349795328124E-11
4.2499999999999996E-5     2.438052248983976E-9     2.518208560986323E-9     1.9763437241497197E-9    2.2851466252752033E-9    3.3601277171864095E-9    3.2056348145085375E-9    2.8507796271298005E-9    7.146859879532109E-10    -3.7218180402822248E-9   -1.0728433729261059E-10  3.974677664582758E-12
4.2999999999999995E-5     1.0012659243260339E-9    1.1816649440525012E-9    6.347337635979822E-10    1.1435247950710678E-9    2.5916085420506196E-9    3.240344807524936E-9     3.1670319471632575E-9    9.494758674983714E-10    -3.5102633833970802E-9   -1.8414635197414708E-10  -6.931238544730036E-11
4.35E-5                   -7.471590570535851E-10   -4.2625376425150176E-10  -9.754946129227757E-10   -2.520817547242287E-10   1.5677738397074208E-9    3.1574946141537827E-9    3.4096525143723447E-9    1.2000768294986005E-9    -3.115842311470164E-9    -2.711012800328645E-10   -1.5769091623776256E-10
4.4E-5                    -2.791822395094362E-9    -2.2853689427155365E-9   -2.8268622636970466E-9   -1.883778486389292E-9    2.8272582916314623E-10   2.938528445189204E-9     3.5429025097222936E-9    1.4561680690704382E-9    -2.517842140820094E-9    -3.6942125480903523E-10  -2.60451434069706E-10
4.45E-5                   -5.094779009969884E-9    -4.368741097952815E-9    -4.8802180932664724E-9   -3.723014830010478E-9    -1.2535724550453098E-9   2.5635204371974394E-9    3.5373688846169815E-9    1.7074569760279221E-9    -1.703017637650996E-9    -4.793650614787884E-10   -3.766087798038895E-10
4.4999999999999996E-5     -7.5915835204937E-9      -6.637335823069254E-9    -7.087819330099689E-9    -5.732411889398719E-9    -3.0184492165449877E-9   2.013127168582809E-9     3.3741001867348385E-9    1.9438032895227604E-9    -6.658531845323263E-10   -5.988576395094798E-10   -5.048958156706251E-10
4.5499999999999995E-5     -1.019337983547352E-8    -9.035353950355485E-9    -9.38929417588173E-9     -7.86414341818868E-9     -4.980001155821901E-9    1.273008789522049E-9     3.0430218044305724E-9    2.1541507739957112E-9    5.912552173180803E-10    -7.237243224861729E-10   -6.430764474211041E-10
4.6E-5                    -1.2792943656354114E-8   -1.148786852980875E-8    -1.1705043910336661E-8   -1.00567336579685E-8     -7.095808546807773E-9    3.3724914179814734E-10   2.53697729765808E-9      2.3257068858984715E-9    2.056147782313369E-9     -8.486482802134373E-10   -7.871343455094685E-10
4.65E-5                   -1.5270290589494833E-8   -1.3899758271491048E-8   -1.3935710034873918E-8   -1.223325748046276E-8    -9.30819951872864E-9     -7.911795975658372E-10   1.8466375897214039E-9    2.4438672347667884E-9    3.705316336169865E-9     -9.675769969507405E-10   -9.312312147102751E-10
4.7E-5                    -1.7495991339675747E-8   -1.6155887929341835E-8   -1.5969844312134556E-8   -1.4301949589940245E-8   -1.1541824880329477E-8   -2.101125382134178E-9    9.61133080622233E-10     2.4923839891309564E-9    5.504499313896912E-9     -1.0734725182600085E-9   -1.068516612107941E-9
4.7499999999999996E-5     -1.9334093583246356E-8   -1.812486424184486E-8    -1.7693644817239607E-8   -1.6158536251520505E-8   -1.3706845961839163E-8   -3.5725335211073573E-9   -1.2591273889435825E-10  2.453591006760252E-9     7.409907164599814E-9     -1.1582763239026598E-9   -1.1919009602943848E-9
4.8E-5                    -2.0647099267809585E-8   -1.9667879379035027E-8   -1.899613893546948E-8    -1.768999923049743E-8    -1.570537560925194E-8    -5.174245453289015E-9    -1.409993266114151E-9    2.3093977266772386E-9    9.367590783163832E-9     -1.2135225883105789E-9   -1.294052645101212E-9
4.85E-5                   -2.1302947637929585E-8   -2.065022928019208E-8    -1.9769417910784836E-8   -1.8780387643493843E-8   -1.7436682847510228E-8   -6.862393698791284E-9    -2.8734022487392633E-9   2.0436181265512604E-9    1.1311701742629873E-8    -1.2310638187569698E-9   -1.366889402032951E-9