% Model:              Untitled.mph
% Version:            COMSOL 6.0.0.405
% Date:               Jul 16 2025, 16:24
% Dimension:          1
% Nodes:              401
% Expressions:        11
% Description:        Point graph
% Time (s)                Displacement field, Y component Displacement field, Y component Displacement field, Y component Displacement field, Y component Displacement field, Y component Displacement field, Y component Displacement field, Y component Displacement field, Y component Displacement field, Y component Displacement field, Y component Displacement field, Y component
0                         3.395735940987901E-31    2.1619418342649958E-30   2.650363991103119E-31    3.155307788050996E-31    1.2891398051651627E-31   1.3226331567220467E-32   4.141851191897263E-33    1.605639157326106E-33    -2.22569689159792E-31    -2.011450022444284E-35   -6.914609313720135E-36
5.0E-7                    -5.077152908836998E-23   -4.485222594851398E-22   3.015232599635252E-24    -2.58898372085772E-23    -1.9551694277965047E-23  -1.5462315772076325E-24  -5.950213889028787E-25   -1.3197751921625511E-25  1.757244245591314E-23    1.7119739861725406E-27   9.582315867648778E-28
1.0E-6                    3.483961926894071E-23    1.2427816035111634E-21   -2.821666657093763E-22   -1.192132432701179E-22   3.428078464842007E-23    -3.149860550131127E-24   9.217562917287372E-25    -7.102701730045643E-25   6.587833082874201E-23    3.900450442055674E-27    -8.342537427192378E-28
1.5E-6                    1.722766622369997E-21    2.0134740398823407E-21   8.660352211959666E-23    1.6811705914933524E-22   -5.192833203220408E-23   3.226010221024888E-23    -2.007887184210733E-24   3.141067269641952E-24    -1.3673443860077187E-22  -1.3018692828756166E-26  -1.8683417877301314E-27
2.0E-6                    -5.957719034054255E-21   -2.3544427368311888E-20  3.3560085380248714E-21   1.6312989487528476E-21   1.535794825592619E-23    -7.372878569205243E-23   2.6336065932382113E-24   7.473821910707409E-25    -5.993606343985584E-22   -1.3529330624981073E-26  7.957750919452288E-27
2.4999999999999998E-6     -4.8487155675914155E-21  1.913396319095729E-20    4.736216635849771E-21    -1.33747813574966E-21    6.264367529419435E-23    -1.4280171195097757E-22  2.1481385919834983E-23   -1.7493845460830676E-23  -1.4842863535657114E-22  -8.087245559128274E-26   -6.875247953548336E-27
3.0E-6                    5.2265407039859894E-20   1.6746438900739678E-19   -4.596274389888937E-20   -1.8351164239529553E-20  5.785485775994252E-22    9.241622631822446E-22    -7.70913343018002E-23    -5.8692410620575146E-24  7.643454678732555E-21    4.890902141811077E-25    -5.221722283241862E-27
3.5E-6                    6.035099912294062E-21    -1.128948122886316E-19   -6.065661263900495E-20   1.4601156855423E-20      -6.605816854318622E-22   7.452377394470177E-23    -6.41782300647253E-23    1.4612141903297874E-22   3.808485743886981E-21    3.496048242867799E-25    -1.1832454574917515E-25
4.0E-6                    -2.006677232030723E-19   -9.157171112249702E-19   3.83115385450216E-19     1.3719306240108486E-19   -5.3571356855951805E-21  -7.561130143951969E-21   5.850497882910763E-22    -3.6647930611839013E-23  -4.1813915430656263E-20  -3.511073040550034E-24   3.958573310121441E-25
4.5E-6                    -1.510623960332079E-20   2.1197869748311732E-19   7.076927087620508E-19    -1.457371293007768E-20   7.049817037948316E-21    7.07105357918431E-21     1.752327175407634E-22    -6.258493303295952E-22   -1.25417843752271E-19    -4.659955601493639E-24   7.249346839652055E-25
4.9999999999999996E-6     2.0012965495165589E-19   3.356436540743766E-18    -2.3052300666644198E-18  -8.983289832316425E-19   5.037542244731824E-20    4.0898378059701397E-20   -3.567108154604676E-21   -4.596933188399128E-22   9.64196544560612E-20     1.7506317598665074E-23   -3.717093344162452E-24
5.5E-6                    1.2711317893342262E-18   7.083562962869492E-18    -5.124828862137456E-18   -1.9222252391343496E-19  2.0884787832923834E-20   -5.104976876268068E-20   2.3082240559905156E-21   3.0252186404290435E-21   1.0053709934257239E-18   2.5092485809723948E-23   -4.719813267550399E-24
6.0E-6                    4.569044240454765E-18    -3.1619594475489014E-18  9.896403706481394E-18    4.9557142513230955E-18   -3.1949769105926167E-19  -1.9552267181262457E-19  1.6426144272396705E-20   9.300922137657682E-21    5.972783620194724E-19    -7.708651956792724E-23   2.67875969542048E-23
6.5E-6                    -3.96228473446583E-18    -6.10304315367613E-17    2.7592961456892015E-17   3.961434014248525E-18    -1.9003058472753124E-19  2.6572684824218003E-19   -1.1983160339567655E-20  -8.18852850422936E-21    -6.2163935334218614E-18  -1.6648817912397407E-22  2.2959618740307413E-23
7.0E-6                    -2.4818810619442466E-17  -2.820160132411821E-17   -2.1594621591559284E-17  -1.7294247310196334E-17  2.765581811139149E-18    1.0030546475947978E-18   -5.950762238055082E-20   -6.140325613929175E-20   -1.2368256160350942E-17  1.981110730802823E-22    -1.586352993859727E-22
7.499999999999999E-6      1.3067025462527135E-17   3.155349034758368E-16    -9.762484811194952E-17   -2.1497598239258126E-17  5.365376517114849E-18    -8.739132056269415E-19   4.905010789609305E-20    -1.404736739289309E-20   1.7184293308122972E-17   7.272961953465721E-22    -1.2406019993492787E-22
8.0E-6                    1.2627369817042572E-16   3.226891446973893E-16    3.419871584861362E-18    6.47314887418369E-17     -7.151332614197797E-18   -3.900844412724473E-18   4.0866200059582115E-19   2.53601526179481E-19     6.638946073028991E-17    -1.4639917711211304E-21  7.20794973721162E-22
8.5E-6                    1.1561044716650352E-16   -8.948199803259717E-16   2.6030808321322116E-16   1.5775018874607107E-16   -2.0815840278300746E-17  3.84235589099294E-18     3.1438641400544643E-19   3.370788942613455E-19    -3.485795036446557E-17   -6.329306698869604E-21   6.3240461703757005E-22
9.0E-6                    -1.2795081618386428E-16  -1.225833500539733E-15   3.263140768970768E-16    -6.9268678553730534E-18  6.31768210213707E-17     1.9173932077796118E-17   -1.3598931453171918E-18  -2.8890445237474366E-19  -3.4096273101405523E-16  1.4651126457198628E-21   -3.280380743137049E-21
9.499999999999999E-6      -2.579437930025824E-16   2.328568446897685E-15    -5.524256324636776E-19   -2.6711876705716225E-16  2.5768742546049743E-16   5.018266721610258E-18    -8.568954061220764E-19   -9.921835880743489E-19   -3.494376417904807E-16   2.382528122693633E-20    -4.732071370993858E-21
9.999999999999999E-6      1.9484675141479787E-16   4.9764607021158996E-15   -7.875448947790129E-16   2.8611642643108317E-16   1.955332444567008E-16    -2.9512960012633226E-17  1.0057636581029913E-17   -6.702311995422908E-19   4.4045776298119507E-16   -2.002208937394755E-20   1.0384314751058722E-20
1.05E-5                   1.5552258034469336E-15   -8.276289541409867E-16   -9.266332604808157E-16   2.0667444671464228E-15   -1.827958440541375E-16   3.9217663672098883E-17   2.072499687692002E-17    1.531463402481397E-18    9.66137602314293E-16     -1.9826456214555246E-19  1.948024027076319E-20
1.1E-5                    3.811893573647659E-15    -6.070008233508714E-15   3.7377783303430465E-15   4.141627174175683E-15    9.206778597690511E-16    2.803865822591803E-16    4.552671285207411E-18    9.607669863574786E-18    -1.6194851586638417E-15  -2.7409511624739626E-19  -4.9028929359808537E-20
1.15E-5                   4.58716178140551E-15     4.93432509777301E-15     1.2783541955982216E-14   5.912727221870677E-15    5.559549848851058E-15    5.433102614214312E-16    1.0010934831587324E-17   2.257660169639862E-17    -8.328955535028773E-15   3.208612342764382E-20    -1.399073440239038E-19
1.2E-5                    -2.8600869493851754E-16  1.9234553161658733E-14   1.0382731203326727E-14   9.350167112501236E-15    1.1007432092000376E-14   8.304804992037916E-16    1.7622849904992374E-16   1.3983138694571943E-17   -1.2919691037746137E-14  -1.7962210932004384E-19  1.1095478780426965E-20
1.2499999999999999E-5     -4.356726157706505E-15   2.010772144447642E-14    -7.421151468734928E-15   2.370708838931038E-14    1.4822578235013323E-14   1.976019383096079E-15    4.953962882048473E-16    -1.7377716631996507E-17  -7.784648616034518E-15   -3.1050832594834E-18     2.0932657976505934E-19
1.3E-5                    1.9252481273623206E-14   5.145697237950558E-14    1.5521862811837863E-14   7.13918264251691E-14     3.461000795826573E-14    5.7048009425415416E-15   8.237427534949648E-16    7.071092986043041E-17    -9.666131261590316E-15   -9.581663399165143E-18   -6.818158719095552E-19
1.35E-5                   8.461978747199406E-14    1.4646184175475044E-13   1.382751674647628E-13    1.7070563654123602E-13   1.0525186309721388E-13   1.4287780971331394E-14   1.7251522302965942E-15   4.290929692689204E-16    -6.479649452619352E-14   -1.8680346820777512E-17  -2.815244234376989E-18
1.4E-5                    1.3055151334202074E-13   1.7530131733570104E-13   2.768555555426624E-13    3.111900935395412E-13    2.3754843943476317E-13   3.217217616561273E-14    4.933304463438805E-15    8.199292919443728E-16    -1.8664800127031155E-13  -3.598086626884295E-17   -4.049963276935419E-18
1.45E-5                   5.2723217886624156E-14   1.2010072574597384E-14   2.9399904987361364E-13   5.312504199491496E-13    4.403470551703694E-13    7.066625928461089E-14    1.1900589267266616E-14   1.0019533568740081E-15   -3.2756132091217386E-13  -8.654015651610915E-17   -6.327935907303452E-18
1.4999999999999999E-5     -9.533087177596282E-14   -1.129943282137027E-15   4.006572644047721E-13    1.07183918896016E-12     8.668355184119501E-13    1.5145405023985036E-13   2.3696785783220298E-14   2.1680947629973078E-15   -5.375930592991571E-13   -2.271044096991071E-16   -2.2271906235632736E-17
1.55E-5                   3.717786682969516E-14    8.343396100066424E-13    1.190199780071762E-12    2.2808705380659148E-12   1.8446049192127383E-12   3.111248547390978E-13    4.757072162042637E-14    6.701552456924991E-15    -1.0987227066190293E-12  -5.598078164695536E-16   -6.530855973369574E-17
1.6E-5                    7.905126511082722E-13    2.4851120873110693E-12   2.875186172157606E-12    4.256576987559735E-12    3.6195788754831385E-12   6.283602282685864E-13    1.0460150988283863E-13   1.4906351697989045E-14   -2.244201592282356E-12   -1.2512004474786448E-15  -1.4613395697748267E-16
1.6499999999999998E-5     1.8641471449640423E-12   3.592076254005779E-12    4.8956830054173784E-12   7.013180431902486E-12    6.359639490916706E-12    1.2690124179346088E-12   2.2527704109912058E-13   2.4780110593695788E-14   -3.871447977087478E-12   -2.638990617405843E-15   -3.221854299593385E-16
1.7E-5                    2.2575435355225077E-12   3.0802649939345387E-12   7.266621982509638E-12    1.1399285431740681E-11   1.0857570576291498E-11   2.472036466932529E-12    4.4210326194913353E-13   3.995261545684297E-14    -6.14990627041146E-12    -5.633354138215082E-15   -7.621997615945825E-16
1.75E-5                   1.4039627089963085E-12   2.6429620112059214E-12   1.2132212610798515E-11   1.9072806715848238E-11   1.8627617627542823E-11   4.472688847988461E-12    8.115450637294004E-13    7.662274955439614E-14    -1.0298983809285966E-11  -1.2354045092002373E-14  -1.7618037092543618E-15
1.8E-5                    5.326819331108881E-13    6.326404245188073E-12    2.2103615090837772E-11   3.0263449907636026E-11   2.98105218529862E-11     7.5712553770707E-12      1.4604151224055918E-12   1.590381273420281E-13    -1.7422446853244892E-11  -2.6452325721685835E-14  -3.869583187739659E-15
1.85E-5                   2.3620976894400605E-12   1.6339457201130797E-11   3.5888828990524233E-11   4.190743956993064E-11    4.1014021917619206E-11   1.2342253902525142E-11   2.5994312792428152E-12   3.1446253342602613E-13   -2.607893587392902E-11   -5.349422677002959E-14   -8.378085124220337E-15
1.8999999999999998E-5     8.822067078013934E-12    2.9752606609412585E-11   4.7268660761125365E-11   4.979731641810621E-11    4.751669077889183E-11    1.9304019121570923E-11   4.502047082057354E-12    5.785471443902909E-13    -3.2780999080682606E-11  -1.0399378694972593E-13  -1.8043198155001042E-14
1.95E-5                   1.9091565968341886E-11   4.0797665380800137E-11   5.0895627683657883E-11   5.2806361502238066E-11   4.8592540382330256E-11   2.7710991366651274E-11   7.52818731035636E-12     9.917401638829964E-13    -3.614769644101276E-11   -2.002530365187011E-13   -3.7804465463039665E-14
1.9999999999999998E-5     3.022049905373757E-11    4.651392804692574E-11    4.856659292918E-11       5.3030778812165947E-11   4.803275289186117E-11    3.4998331990573923E-11   1.2122501360665454E-11   1.590528215694829E-12    -3.852255912444647E-11   -3.8155209162481016E-13  -7.618675646533453E-14
2.05E-5                   3.9566199173388755E-11   4.867729349741502E-11    4.679598456619645E-11    5.109406900889099E-11    4.7427256845646396E-11   3.867595731581115E-11    1.8491448162400775E-11   2.4733974125717305E-12   -4.1320667802259945E-11  -7.019387212082546E-13   -1.4868841947828928E-13
2.1E-5                    4.6202918210569227E-11   4.968838447629415E-11    4.7519976895228826E-11   4.3519469400106854E-11   4.184578141440533E-11    3.89314901884361E-11     2.5990823277984842E-11   3.95393134329148E-12     -4.0888113341186525E-11  -1.2293090924328958E-12  -2.834655917446262E-13
2.1499999999999997E-5     5.017143511667353E-11    4.828985423686394E-11    4.4137252714632414E-11   2.6395054591578315E-11   2.5639097591977816E-11   3.77931250936252E-11     3.302989175085715E-11    6.55933034838159E-12     -3.2415924231821666E-11  -2.061321005635383E-12   -5.277156348213132E-13
2.2E-5                    5.131879769781645E-11    4.091441392560655E-11    2.8633872513852996E-11   1.7541167872101985E-13   2.833015347398578E-13    3.510789743173575E-11    3.814253323026143E-11    1.0612818764821916E-11   -1.6707604266011122E-11  -3.3403440804808464E-12  -9.509135476510963E-13
2.2499999999999998E-5     4.939223650480928E-11    2.615498993884959E-11    3.582369267181506E-13    -3.112216778260106E-11   -2.7879918978799943E-11  2.729046013268223E-11    4.122543402083982E-11    1.5669444919814467E-11   1.0202587745919037E-12   -5.1992468612366245E-12  -1.6402271199331752E-12
2.3E-5                    4.4535995032519E-11      5.625659791450123E-12    -3.4865691270338624E-11  -6.496953406286818E-11   -5.6417088363867675E-11  1.1513143945165431E-11   4.2971767403966635E-11   2.0546563391447673E-11   1.8943369502230665E-11   -7.589275643914668E-12   -2.689331142391046E-12
2.35E-5                   3.6558224865802635E-11   -1.9475563567338975E-11  -7.270561031070103E-11   -1.0284673979367735E-10  -8.873185934477157E-11   -1.0558031632701807E-11  4.252090192518529E-11    2.4155967947567182E-11   4.1138290561994225E-11   -1.0076699251428228E-11  -4.18742802517623E-12
2.4E-5                    2.3526502093812907E-11   -5.0132405951890567E-11  -1.1393025582397416E-10  -1.4739448838818575E-10  -1.27668911828203E-10    -3.511770909472327E-11   3.630050958047036E-11    2.6190917334522646E-11   7.130689394187315E-11    -1.1840555922344463E-11  -6.1948502865833374E-12
2.45E-5                   1.9199977404875617E-12   -8.683641296836241E-11   -1.60257669920233E-10    -1.98125238531182E-10    -1.7174906089051233E-10  -6.095776869496897E-11   2.037179188650524E-11    2.6650688127226023E-11   1.0764926224225768E-10   -1.2043695386802272E-11  -8.6591462805535E-12
2.4999999999999998E-5     -3.104775586473763E-11   -1.2732333300710156E-10  -2.1015281219088675E-10  -2.50910116962683E-10    -2.1853733390401913E-10  -8.97599355240917E-11    -5.805090515557431E-12   2.47181497039808E-11     1.461212063375358E-10    -1.0393995980104423E-11  -1.1271948534163785E-11
2.55E-5                   -7.512519318770941E-11   -1.6896763220428685E-10  -2.604043861414874E-10   -3.017076415493504E-10   -2.6821138049684965E-10  -1.22801552077891E-10    -3.8619462453241523E-11  1.8637960269967226E-11   1.862138866991963E-10    -7.352954091834067E-12   -1.3413671948654035E-11
2.6E-5                    -1.2715699924165682E-10  -2.12193723893574E-10    -3.098289193560735E-10   -3.49953242761448E-10    -3.2217171385584923E-10  -1.5984482487277616E-10  -7.367544087024925E-11   7.0983767743211045E-12   2.305154079067763E-10    -3.621996957517506E-12   -1.4369555675070387E-11
2.65E-5                   -1.8349808775420209E-10  -2.592167684141679E-10   -3.5945194271340407E-10  -3.975353030153632E-10   -3.794454292412295E-10   -2.008322271151624E-10   -1.095456912578508E-10   -9.427083251159392E-12   2.7932107834151903E-10   6.697930246512038E-13    -1.3723447601785597E-11
2.7E-5                    -2.422910437333875E-10   -3.0979827125616604E-10  -4.0986662914785356E-10  -4.4477707660370586E-10  -4.34990130674202E-10    -2.461035041527481E-10   -1.4806249413476877E-10  -2.893158763079979E-11   3.2833238623391056E-10   6.0969148726846945E-12   -1.15079734681934E-11
2.7499999999999998E-5     -3.0351621289137615E-10  -3.60489221008021E-10    -4.5980000187707294E-10  -4.881920288907394E-10   -4.813248447204473E-10   -2.9418442811771924E-10  -1.91498214913351E-10    -4.9225133553666166E-11  3.7220105328783944E-10   1.3056921569908403E-11   -7.858027418887989E-12
2.8E-5                    -3.6695574808620597E-10  -4.082839866318161E-10   -5.063998008473476E-10   -5.218267481069449E-10   -5.127554211484111E-10   -3.4081022870142666E-10  -2.3984367507218516E-10  -6.881743684995143E-11   4.0853865785995285E-10   2.0902346346415842E-11   -2.5387773689630157E-12
2.8499999999999998E-5     -4.3018366289383096E-10  -4.527553536399221E-10   -5.449501344744498E-10   -5.396228039760106E-10   -5.282707456259674E-10   -3.810967373400075E-10   -2.901822150834968E-10   -8.700317740519715E-11   4.373723497832662E-10    2.8350585629828304E-11   5.022293352522156E-12
2.9E-5                    -4.886679122424942E-10   -4.932964679226286E-10   -5.679810831119485E-10   -5.362950690955807E-10   -5.288010085097183E-10   -4.122899247384314E-10   -3.377454859094626E-10   -1.0399348285307446E-10  4.576868669671595E-10    3.4903812961106466E-11   1.5151153550363393E-11
2.95E-5                   -5.378706000325942E-10   -5.255155760834083E-10   -5.660408817372663E-10   -5.070401648596124E-10   -5.114684312035573E-10   -4.3383585808581456E-10  -3.7767269697245483E-10  -1.2112976471767078E-10  4.6555014877823946E-10   4.159654978167429E-11    2.7453425706794377E-11
2.9999999999999997E-5     -5.748606422642175E-10   -5.416852953749496E-10   -5.306488993305556E-10   -4.4732463230434833E-10  -4.684343749563797E-10   -4.445781302259774E-10   -4.0692614849030504E-10  -1.401962165476564E-10   4.549340452892865E-10    5.012030581686928E-11    4.1007272220725125E-11
3.05E-5                   -5.972575636719434E-10   -5.341653959713941E-10   -4.5726899340791713E-10  -3.5300515941619785E-10  -3.9153236598643147E-10  -4.3988262683761605E-10  -4.2528790418126336E-10  -1.6185447755212458E-10  4.1939830730752285E-10   6.134594618151676E-11    5.5037696338316657E-11
3.1E-5                    -6.004985737333731E-10   -4.974156843143265E-10   -3.4593436596555523E-10  -2.2058697509897664E-10  -2.7595830725222395E-10  -4.11834941616987E-10    -4.338724025126331E-10   -1.8484175581813313E-10  3.5366381617944957E-10   7.481355850134574E-11    6.945514371634161E-11
3.15E-5                   -5.767942152156259E-10   -4.272746416163736E-10   -1.98533746303124E-10    -4.769678216561335E-11   -1.1942780905897306E-10  -3.528783512916907E-10   -4.3143578737437035E-10  -2.06935666066189E-10    2.5484344053075857E-10   8.933848921214492E-11    8.484081387071363E-11
3.2E-5                    -5.174512962459657E-10   -3.1971264653725145E-10  -1.4196670725918915E-11  1.6640615952226732E-10   7.963038450359383E-11    -2.595074807369623E-10   -4.117980144421286E-10   -2.2639370059588098E-10  1.2208522654776584E-10   1.0364192031531286E-10   1.018429887648029E-10
3.25E-5                   -4.1634855154736574E-10  -1.7082440956621244E-10  2.124755895678029E-10    4.209993471342358E-10    3.2182378459146215E-10   -1.3206214046177655E-10  -3.656582871152458E-10   -2.419867232376992E-10   -4.565576950016026E-11   1.1634582052634239E-10   1.2025851366318303E-10
3.2999999999999996E-5     -2.711453070552244E-10   2.2120273392185767E-11   4.863695212438556E-10    7.148582391122654E-10    6.056961659084071E-10    2.910427074396102E-11    -2.85723885452298E-10    -2.5175354546137995E-10  -2.5092417588526253E-10  1.2575270987188764E-10   1.3839452126994198E-10
3.35E-5                   -8.164345750506543E-11   2.593190357652304E-10    8.041214006750661E-10    1.0463489905940973E-9    9.270818880964106E-10    2.2614154527266917E-10   -1.7010681223311223E-10  -2.522978488805874E-10   -4.95608044864685E-10    1.3001700835348593E-10   1.5336176779917496E-10
3.4E-5                    1.5224300233894969E-10   5.376695316099799E-10    1.1535123304726788E-9    1.410882433708804E-9     1.27904336103806E-9      4.611189268902291E-10    -2.0526071443077346E-11  -2.395690291874074E-10   -7.772992769312626E-10   1.2764060122187656E-10   1.6229034106401163E-10
3.45E-5                   4.307254278133096E-10    8.516828107525926E-10    1.5219147815975508E-9    1.7974384186350853E-9    1.6529822143048652E-9    7.311314486354924E-10    1.6241534452919854E-10   -2.1011855300268643E-10  -1.0884213711744146E-9   1.1773868289830806E-10   1.6347635024473815E-10
3.5E-5                    7.527340360446407E-10    1.1956247115655067E-9    1.9029060155072538E-9    2.1886948049505967E-9    2.039873206295607E-9     1.0273572168048408E-9    3.813695807578897E-10    -1.615242211925151E-10   -1.4187912979546804E-9   9.978883053700468E-11    1.563455718512329E-10
3.5499999999999996E-5     1.1142167380564422E-9    1.5640828166184257E-9    2.2919059382556696E-9    2.5656675902498136E-9    2.4284160282171152E-9    1.3391021034670673E-9    6.392557124803656E-10    -9.211373557392273E-11   -1.7579450948417668E-9   7.322210799251985E-11    1.4029487471976743E-10
3.6E-5                    1.5070357114173187E-9    1.949162497180733E-9     2.676614487865273E-9     2.9114142585466E-9       2.8007537370515627E-9    1.6569566497808042E-9    9.34132681986254E-10     -1.027867635622941E-12   -2.0944164912998583E-9   3.7392520976238695E-11   1.1374663446169247E-10
3.65E-5                   1.918844554269719E-9     2.336899002154248E-9     3.0342632922356957E-9    3.2092509623943636E-9    3.131842078182954E-9     1.9709940549757433E-9    1.2567590407388968E-9    1.1119397057924674E-10   -2.413640150193032E-9    -8.164002591074737E-12   7.455738270132286E-11
3.7E-5                    2.3341008054404156E-9    2.707218039930804E-9     3.3373832712444537E-9    3.4386175206330847E-9    3.3948573559961293E-9    2.267626449136387E-9     1.5924233329160153E-9    2.4252864564129023E-10   -2.6978914081477585E-9   -6.382080940962209E-11   2.135000662582504E-11
3.75E-5                   2.7355596810205323E-9    3.0377955461791095E-9    3.5597940597146666E-9    3.5745184218034814E-9    3.5663283619272694E-9    2.530163267861888E-9     1.924658622884774E-9     3.9049124705057916E-10   -2.928384914155122E-9    -1.303824502303596E-10   -4.5761933535771846E-11
3.7999999999999995E-5     3.104755946311988E-9     3.307645238226762E-9     3.6777488246458464E-9    3.5907896772898734E-9    3.6253506528539066E-9    2.7415966868578114E-9    2.2378110426461043E-9    5.531923355943097E-10    -3.0863083709130707E-9   -2.091030734000185E-10   -1.2586021763670054E-10
3.85E-5                   3.4207200026670757E-9    3.497097088192557E-9     3.669017787510672E-9     3.463204326687464E-9     3.550535354484789E-9     2.884796479134498E-9     2.517446607791999E-9     7.288300227827729E-10    -3.151428886038198E-9    -3.005133795954183E-10   -2.1847600275178396E-10
3.9E-5                    3.6582239339421436E-9    3.5853887123613025E-9    3.513299169795474E-9     3.171078779747473E-9     3.320935091312089E-9     2.940277845253931E-9     2.7491936937279477E-9    9.137684716390238E-10    -3.1013733556980802E-9   -4.028689039015155E-10   -3.2399918934714623E-10
3.95E-5                   3.787880550594368E-9     3.549536032993888E-9     3.193159758361221E-9     2.6987487466859112E-9    2.9196543828729546E-9    2.886404029661044E-9     2.9168549759417917E-9    1.1013178370420172E-9    -2.9146386162554438E-9   -5.11728946729504E-10    -4.428046702800982E-10
3.9999999999999996E-5     3.77912317150094E-9      3.366365741844447E-9     2.6937836070418726E-9    2.0366338768692067E-9    2.3347526458186E-9       2.703566471638817E-9     3.0007559897315208E-9    1.2827646665955262E-9    -2.5753734209221107E-9   -6.210576331431927E-10   -5.737953709155628E-10
4.0499999999999995E-5     3.6047539842517004E-9    3.0163049243694583E-9    2.0023967368648895E-9    1.1807743524403315E-9    1.5577049901385271E-9    2.3776218560348464E-9    2.977754269904868E-9     1.4495530451247306E-9    -2.0753214103858244E-9   -7.248280954658211E-10   -7.132729222452013E-10
4.1E-5                    3.2444422774174824E-9    2.4860679893185184E-9    1.1094372927912368E-9    1.3230679306315856E-10   5.841790460117581E-10    1.8984899408374896E-9    2.8238462460261474E-9    1.5941239642673885E-9    -1.4117451089287247E-9   -8.179652390799521E-10   -8.546678704405449E-10
4.15E-5                   2.6852405514424474E-9    1.7688272602676767E-9    1.1862500797646557E-11   -1.1009003384206139E-9   -5.825880120446093E-10   1.2572064050677451E-9    2.5183916329055373E-9    1.7086102601928802E-9    -5.845617528980903E-10   -8.961501892439717E-10   -9.892553454251524E-10
4.2E-5                    1.919490773739464E-9     8.631453053364266E-10    -1.2830256397096715E-9   -2.5013860883990266E-9   -1.9301418728625958E-9   4.480491137585539E-10    2.0474343646085406E-9    1.7831575427324897E-9    4.0400572320400283E-10   -9.546244896782686E-10   -1.107463158257217E-9
4.2499999999999996E-5     9.4288821313873E-10      -2.2712292420735745E-10  -2.755101226069826E-9    -4.040699355698333E-9    -3.4372166890648196E-9   -5.246728305058287E-10   1.4044241068250915E-9    1.8058516810692295E-9    1.5468643381098293E-9    -9.86815161978528E-10    -1.1999067705387309E-9
4.2999999999999995E-5     -2.442512745841535E-10   -1.491543838426235E-9    -4.37103260439541E-9     -5.67992022543444E-9     -5.071673619894763E-9    -1.643593484560136E-9    5.891324976959013E-10    1.764149624667391E-9     2.828385890578187E-9     -9.842168178729405E-10   -1.2575869646028251E-9
4.35E-5                   -1.6322234062351977E-9   -2.9118680315758187E-9   -6.0856761913144605E-9   -7.3705850112191254E-9   -6.786165250432425E-9    -2.883496224535043E-9    -3.930744951750032E-10   1.6463217948172504E-9    4.222006638132489E-9     -9.382787368415543E-10   -1.271655205478103E-9
4.4E-5                    -3.1969327530338384E-9   -4.4616470211147625E-9   -7.844475301670236E-9    -9.05549171663918E-9     -8.518759538868047E-9    -4.2176097722415415E-9   -1.5305508636896624E-9   1.4422164563792323E-9    5.690482800784805E-9     -8.429783092734059E-10   -1.233485377093429E-9
4.45E-5                   -4.898622128666466E-9    -6.105878454083061E-9    -9.586052989353907E-9    -1.067001070056759E-8    -1.0201326681777368E-8   -5.615862812980094E-9    -2.8040573146961824E-9   1.1438402849379823E-9    7.1878482155381726E-9    -6.957011180613316E-10   -1.1350080626100276E-9
4.4999999999999996E-5     -6.685146846542223E-9    -7.800020048906285E-9    -1.1244322952782041E-8   -1.2143831928373963E-8   -1.1767456400241352E-8   -7.0372001251530815E-9   -4.185886708886684E-9    7.459863327699058E-10    8.660693903910864E-9     -4.957441255723559E-10   -9.687309021603297E-10
4.5499999999999995E-5     -8.496710064173996E-9    -9.489117136019107E-9    -1.2749577682643624E-8   -1.3402650392218489E-8   -1.3151617132894254E-8   -8.426088696658783E-9    -5.639367223592552E-9    2.464461371671063E-10    1.004825630940668E-8     -2.423152796548873E-10   -7.276073670617262E-10
4.6E-5                    -1.0268171133403435E-8   -1.1108025317392666E-8   -1.4028369590632411E-8   -1.437038430747608E-8    -1.4283150719956546E-8   -9.717215854600106E-9    -7.118118196468727E-9    -3.5408528250036416E-10  1.1283564937744636E-8    6.584141267436974E-11    -4.057214229794162E-10
4.65E-5                   -1.1927815752553246E-8   -1.258295837367208E-8    -1.5003299253810575E-8   -1.497283091477183E-8    -1.5084762948482308E-8   -1.0842471717269523E-8   -8.565281775886669E-9    -1.0513325323612086E-9   1.2297029498897536E-8    4.290980530695017E-10    -4.879819848288781E-14
4.7E-5                    -1.3394911832197853E-8   -1.3834582045869205E-8   -1.5595229625443188E-8   -1.5141847339301624E-8   -1.547792549518311E-8    -1.1734238341017588E-8   -9.91406940682864E-9     -1.8355551363305642E-9   1.302042601595898E-8     8.452638109338832E-10    4.879155868014742E-10
4.7499999999999996E-5     -1.4579513217017813E-8   -1.4782919741575186E-8   -1.572909797823566E-8    -1.481794035370365E-8    -1.5389818502811293E-8   -1.232586083851209E-8    -1.1090969758784464E-8   -2.6897574872876886E-9   1.338890702713606E-8     1.3085274152606076E-9    1.051975317224893E-9
4.8E-5                    -1.5386440430687E-8      -1.5352786322465092E-8   -1.5340526318041515E-8   -1.3951116996690458E-8   -1.4758101997548996E-8   -1.2552983724426491E-8   -1.202154310435043E-8    -3.5896175093420913E-9   1.3342161883753532E-8    1.8090447614788394E-9    1.6821832928833612E-9
4.85E-5                   -1.572284675368201E-8    -1.5477042531361877E-8   -1.437926951120992E-8    -1.2502682119011061E-8   -1.3534636255540011E-8   -1.235669310616739E-8    -1.2636518458832114E-8   -4.505132441539418E-9    1.2827439091338248E-8    2.333082971219861E-9     2.3652788906263827E-9