% Model:              Untitled.mph
% Version:            COMSOL 6.0.0.405
% Date:               Jul 15 2025, 15:25
% Dimension:          1
% Nodes:              401
% Expressions:        11
% Description:        Point graph
% Time (s)                Displacement field, Y component Displacement field, Y component Displacement field, Y component Displacement field, Y component Displacement field, Y component Displacement field, Y component Displacement field, Y component Displacement field, Y component Displacement field, Y component Displacement field, Y component Displacement field, Y component
0                         -4.772977455448525E-33   3.5064723888096984E-31   8.29146075971019E-31     2.287623678974654E-31    4.3602599805329086E-32   3.046921225113981E-32    4.553682749808379E-32    5.380826038133307E-33    7.291350917801579E-34    -8.08778811316467E-32    -2.684397451700619E-32
5.0E-7                    1.1195506882636493E-22   1.0835688954902179E-21   -2.3131740923317926E-22  -2.9865611788487815E-23  4.1699074725152106E-24   2.786193513462335E-24    8.37699577698759E-23     5.725110277502542E-24    6.655779293240584E-25    -5.802000875115164E-23   3.645868124251719E-24
1.0E-6                    -2.0358120451316062E-22  2.0643671906762605E-21   1.5880559470470748E-21   1.3506887356182024E-22   -4.490000898189422E-23   -8.409810085378537E-23   -6.923858644920023E-22   -5.37721553268305E-23    -5.5290518041355544E-24  1.793121432176126E-22    -3.868692878058982E-23
1.5E-6                    -1.932707156561278E-21   -2.5322179488731035E-20  2.2958086632783237E-21   3.913122437750969E-22    1.0674800438358523E-22   4.465824974774758E-22    1.3747495267649898E-21   1.2436871418286959E-22   1.2450935860101586E-23   8.529601114643813E-22    3.1555737933231744E-22
2.0E-6                    5.581026103917626E-21    -6.0100346369384565E-21  -2.857467517758245E-21   -2.0291155952548648E-21  -8.844274904355415E-23   -8.744094530544138E-22   2.3425554594556655E-21   1.1669606512757618E-22   1.3592751096463779E-24   -2.8019108748286927E-21  -1.235830017333176E-21
2.4999999999999998E-6     -8.695770498419722E-21   -3.364537902340954E-20   1.8877948687594333E-19   1.6916634027975784E-20   4.961048907054692E-22    -9.359740203058166E-22   -7.819616424625713E-21   -5.201087791755611E-22   -3.479268239217027E-23   -4.7551966708520705E-21  1.3065918253219116E-21
3.0E-6                    1.275369969852816E-21    -1.1011081388493373E-19  -9.79597676158868E-20    -1.2768920670476304E-20  -1.5077066450937007E-21  5.616905074260541E-21    -1.3282490997882415E-20  -7.41097292250213E-22    3.559043822663634E-23    3.060265076926736E-20    5.751654322487451E-21
3.5E-6                    1.1729280679417229E-19   1.4157219631728978E-18   -1.4911399375687154E-18  -9.783062078561986E-20   3.4018323281531456E-21   2.4686420005250094E-21   3.234518866808749E-20    1.2285100177870195E-21   7.212830080255118E-23    -9.801696310289994E-21   -1.58642790998145E-20
4.0E-6                    -7.135792729362705E-20   2.2399952853919645E-18   -3.1252983874609354E-19  3.637808514896948E-20    -9.735612738211963E-22   -2.697333934491031E-20   8.920136752565624E-20    5.040039999037896E-21    -4.532611717960076E-22   -2.4671974559789614E-19  -1.8163244929372497E-20
4.5E-6                    -4.2833050558296007E-19  -5.663607844016428E-18   5.317706149099132E-18    3.017286743239846E-19    -2.423466606249318E-20   -2.155691937695367E-20   -1.1318862020383463E-19  9.863404484932474E-22    -4.041418815787864E-22   8.135450846466765E-21    8.618627243461952E-20
4.9999999999999996E-6     -5.3199550880513145E-20  -1.3542937118519628E-17  5.869826436366105E-18    3.4201319668497393E-19   1.1388028163909685E-19   1.2088826616259336E-19   -4.565641453317604E-19   -1.7288032204220788E-20  4.397894065865708E-21    1.3727685584171722E-18   6.119333639430017E-20
5.5E-6                    8.553055273779178E-21    1.0090329205848102E-18   -5.934037227187187E-18   3.794695664214471E-19    1.473403605499408E-19    1.5772394042201706E-19   2.372064797680355E-19    -3.040828090045775E-20   4.2661160856518665E-21   8.931232060697081E-19    -4.375497848156397E-19
6.0E-6                    9.434685192983949E-19    3.093791974802568E-17    -1.854698569971727E-17   2.5251709634482765E-19   -7.162512222942444E-19   -4.088796403393001E-19   1.785994821966414E-18    3.621716335415565E-21    -2.6322366628822638E-20  -5.995658627502779E-18   -3.376772243128854E-19
6.5E-6                    7.866211372250297E-18    5.2953642509904907E-17   -1.399373038619987E-17   -9.477952657208422E-19   -2.9285873136058543E-19  -7.8185357759116825E-19  1.6154232427561232E-19   1.4136069380256846E-19   -3.6674865952877735E-20  -1.2377541588165336E-17  1.814014819805187E-18
7.0E-6                    8.318015261573769E-18    3.953053098191087E-17    1.7332547821811717E-17   1.0095689368945154E-18   5.261047312071265E-18    1.1055486949182508E-18   -5.2760319003028E-18     2.900504491274617E-19    1.0386530817251858E-19   3.4331917504749202E-18   1.3989592887201377E-18
7.499999999999999E-6      -2.6376927453824075E-17  -9.653468879737677E-17   6.855099410202001E-17    1.757339234729081E-17    6.719216349191377E-18    3.326539260029037E-18    -3.3384446134111548E-18  -1.223178461588719E-19   2.238974697590087E-19    4.465961078001529E-17    -8.525209985899718E-18
8.0E-6                    -6.152803324994624E-17   -3.113379267481591E-16   1.0352147167953361E-16   4.103428148232052E-17    -1.0261450788802084E-17  -1.4766691374773242E-18  1.1477185483067254E-17   -1.497645576354316E-18   -2.44068596297917E-19    4.0118130838662745E-17   -1.3264857021096639E-17
8.5E-6                    4.579085715001013E-17    -1.115814497360524E-16   9.211255277430182E-17    4.3393836620582103E-17   -5.314819824287848E-18   -9.333873118125977E-18   1.3546206928977869E-17   -1.8354739896087967E-18  -9.769177223524134E-19   -1.5682368399328712E-16  1.424279832053569E-17
9.0E-6                    3.2815756509221438E-16   8.338443821044398E-16    3.4036074550951855E-17   9.672049125935794E-17    1.0000897673768117E-16   6.838680941621075E-18    -1.8372164266784747E-17  2.863170841110084E-18    3.7184923747534375E-20   -5.34658657999516E-16    3.339837475448786E-17
9.499999999999999E-6      3.815141385306495E-16    1.4193200250866313E-15   -9.869301257601845E-17   3.674783396263833E-16    2.2026847826781763E-16   4.8313927612667467E-17   -3.2993873176796706E-17  1.0322890951894484E-17   3.0237776908068815E-18   -5.120601187634866E-16   -6.579783626629656E-17
9.999999999999999E-6      -2.1888374725673784E-16  4.7026470694286723E-17   -3.3143611452526803E-17  6.857649439068986E-16    1.0560470962681231E-16   2.6987026292562514E-17   3.30402976673755E-17     5.256544260951266E-18    2.432685041763533E-18    5.492919580871991E-16    -2.5554211827376025E-16
1.05E-5                   -5.639008144241053E-16   -1.6757733456970091E-15  1.4220518291198182E-15   7.064620699673251E-16    -1.616782693753005E-17   -1.0396467203343433E-16  8.573457385305477E-17    -2.2708733117466502E-17  -6.0431758349364844E-18  9.634520846940876E-16    -2.9007110885144115E-16
1.1E-5                    1.68079544170392E-15     9.528626419055775E-16    5.008865013707643E-15    1.7246714965019336E-15   9.767365004047383E-16    -4.1947109465926135E-17  -5.544573251783703E-17   -4.395395056055507E-17   -1.1380882398545227E-17  -4.044290498598523E-15   -1.5316221968813038E-16
1.15E-5                   7.101103992766414E-15    7.591495583401497E-15    7.752003276837817E-15    6.756186978923735E-15    3.76504919533356E-15     6.648210300699092E-16    -2.5856324443734344E-16  -1.4825924412045238E-18  4.612988577410443E-18    -1.5336509381835807E-14  -5.11745347933424E-16
1.2E-5                    1.1890983728151326E-14   9.778137384222897E-15    6.042190480779836E-15    1.4815933574740958E-14   6.7132664846647745E-15   1.5193809431846385E-15   -1.399100499620141E-17   9.906879539296656E-17    3.0250256126730557E-17   -2.1718912594279475E-14  -2.245893717359E-15
1.2499999999999999E-5     1.3670235367443447E-14   7.607074743538609E-15    8.657991361178403E-15    1.862406579921122E-14    7.851107619736742E-15    9.22372470239835E-16     7.969031246191442E-16    1.3938574012894435E-16   1.7235538152509376E-17   -1.4500007515544637E-14  -5.412841045090448E-15
1.3E-5                    2.5132821330969697E-14   2.3700022326207034E-14   3.78753873572839E-14     2.1375217175957185E-14   1.1943392857847393E-14   -7.732014220789266E-16   1.2269988179215574E-15   9.927960032746363E-18    -4.8097165241510204E-17  -2.4093403985854232E-14  -9.354883469697723E-15
1.35E-5                   7.649689173986521E-14    7.644832799240875E-14    9.745451807960976E-14    5.667623679328094E-14    3.466020454814292E-14    1.5471942384412462E-15   9.96545545249328E-17     -2.1651569259873014E-16  -7.871137958047266E-17   -1.1558732826783528E-13  -1.536780315530611E-14
1.4E-5                    1.8842033374429474E-13   1.438511747829276E-13    1.515573173521005E-13    1.6683930414473712E-13   9.205300898945037E-14    1.3070312655679444E-14   -2.1403137596768695E-15  -3.18391409081919E-16    3.579218637602004E-17    -3.023777344867619E-13   -3.0599353871876424E-14
1.45E-5                   3.47819151593394E-13     1.9896585271715032E-13   1.9478784151957502E-13   3.5079008371540213E-13   1.7897907698025727E-13   3.0579558875058927E-14   -2.669594914610486E-15   -1.3821716993943466E-16  2.356640564303639E-16    -5.000637067065023E-13   -6.72163348993258E-14
1.4999999999999999E-5     5.671957145601335E-13    2.89208746954009E-13     3.6429460951615823E-13   5.796522208545458E-13    2.7240907856451687E-13   4.592542969483216E-14    2.647424480391888E-15    3.600420338834483E-16    2.0760332778388203E-16   -6.915755564039591E-13   -1.3426232840599542E-13
1.55E-5                   1.0144764863008823E-12   5.227213620244562E-13    8.766022059936828E-13    9.133052947037487E-13    4.0301976126756404E-13   6.280188825267086E-14    1.678329998771229E-14    1.3101300630140281E-15   -3.237404617362092E-16   -1.1593209763105795E-12  -2.38977358568208E-13
1.6E-5                    2.0081712546565133E-12   9.703640267747245E-13    1.7303560387026772E-12   1.5641928095688867E-12   7.688930035384365E-13    1.0804270115244661E-13   3.6514323519925934E-14   2.8755767128905105E-15   -8.747594595540187E-16   -2.363682088935039E-12   -4.225334458981629E-13
1.6499999999999998E-5     3.761983899355472E-12    1.6785603911729993E-12   2.5970589721389855E-12   2.7911752549354785E-12   1.7743480009249568E-12   2.3601598780129584E-13   4.773460448250627E-14    4.112710345027602E-15    1.341832814953749E-16    -4.47025779736415E-12    -8.217818256594673E-13
1.7E-5                    6.249649329154058E-12    2.8262666685422752E-12   3.409998884477741E-12    4.85980278465537E-12     3.935600083793306E-12    5.415792534141673E-13    3.7196161669127716E-14   2.2487709986224748E-15   3.550970607268594E-15    -7.2254154218031524E-12  -1.7181900837358413E-12
1.75E-5                   9.669927099054779E-12    4.8361224597832295E-12   5.300723850669658E-12    8.373423434721828E-12    7.782857730458846E-12    1.1615804331755111E-12   3.246970803003751E-14    -2.7139411815867068E-15  5.953643375270303E-15    -1.0586831724884724E-11  -3.5548660838113132E-12
1.8E-5                    1.505786626929988E-11    8.438895218252203E-12    1.0543436897473469E-11   1.4572576520533636E-11   1.3844011013939001E-11   2.2555426429002985E-12   1.348026335950186E-13    1.4733453784125967E-15   9.475069122274506E-16    -1.5375644483841E-11     -6.88661683827427E-12
1.85E-5                   2.3748530477060366E-11   1.4728465191563178E-11   2.0707623321131818E-11   2.460308869719298E-11    2.2433392969669585E-11   4.071408775441467E-12    4.705023414294212E-13    3.6771956498809415E-14   -8.91227453197923E-15    -2.300334161294931E-11   -1.2144360314703096E-11
1.8999999999999998E-5     3.552196088048671E-11    2.4588393266813565E-11   3.438971354150382E-11    3.777264471235023E-11    3.3005459646652664E-11   7.143045906323158E-12    1.059386530195645E-12    1.0671767490211017E-13   -1.7676091363305958E-15  -3.440277022747491E-11   -1.9211649675261238E-11
1.95E-5                   4.751328262027981E-11    3.70038967356602E-11     4.7203033398397437E-11   5.0808157059332766E-11   4.3705743040604844E-11   1.22710875178582E-11     1.7672122755012967E-12   1.7725132796342575E-13   4.544955978700126E-14    -4.888910923320649E-11   -2.7232722297509072E-11
1.9999999999999998E-5     5.591992654086224E-11    4.798781199182234E-11    5.484495847521791E-11    5.993899668510796E-11    5.220882921998708E-11    1.9844551595176965E-11   2.54257988846926E-12     2.2992057928961585E-13   1.1389462321463672E-13   -6.344226255959975E-11   -3.513771943530257E-11
2.05E-5                   5.930043308312676E-11    5.306412055783236E-11    5.6552855314571696E-11   6.415528205137768E-11    5.749074768640471E-11    2.891921793703914E-11    3.8370444853159864E-12   3.6283017336232247E-13   1.3906051676157609E-13   -7.334921810436273E-11   -4.249025359995046E-11
2.1E-5                    5.983848594961173E-11    5.233479196685285E-11    5.53606052247264E-11     6.548794145065811E-11    6.02731338966386E-11     3.7362230123038304E-11   6.6954955462270985E-12   7.909732386511221E-13    1.011820530221108E-13    -7.517235525412655E-11   -4.941087564963637E-11
2.1499999999999997E-5     6.077377992433562E-11    5.174159142472084E-11    5.474897951941329E-11    6.517112723664145E-11    6.085588922366015E-11    4.352773108935354E-11    1.2087683626679254E-11   1.6803010368238782E-12   1.3209613027514036E-13   -6.997894934649778E-11   -5.518775758808144E-11
2.2E-5                    6.213050191230925E-11    5.6562423201791356E-11   5.487252723931552E-11    6.015187998170324E-11    5.670101732312669E-11    4.771260850129362E-11    1.9870239561929175E-11   3.0265998327300395E-12   4.595978881252497E-13    -6.201486077133301E-11   -5.7208578141969127E-11
2.2499999999999998E-5     5.861247496210647E-11    6.337192486409418E-11    5.152091650218535E-11    4.478399575661864E-11    4.336430620090646E-11    5.1118898786129116E-11   2.8525207407551632E-11   4.827081140414895E-12    1.1626847526853867E-12   -5.2330221645001586E-11  -5.211296587684499E-11
2.3E-5                    4.202877887663807E-11    6.090750429990725E-11    3.8165312234895665E-11   1.6243005534555386E-11   1.8427460483514344E-11   5.291473302504992E-11    3.6311931943446055E-11   7.364372889787449E-12    2.0274379322703353E-12   -3.4874959425284745E-11  -3.8466610437941656E-11
2.35E-5                   7.17172443119862E-12     4.020200834261243E-11    9.471372787419746E-12    -2.273488140455129E-11   -1.61186519113361E-11    4.913222684653601E-11    4.2798909706699314E-11   1.1093680988788694E-11   2.8233266295140986E-12   -1.462199048749213E-12   -1.7978928385661077E-11
2.4E-5                    -4.362620846280798E-11   2.2982604634395114E-12   -3.550443927080924E-11   -6.711325130252691E-11   -5.586126073686888E-11   3.5808307284736565E-11   4.885562756713031E-11    1.6060565796270912E-11   3.835013911479579E-12    4.9598707662649715E-11   6.282771098371261E-12
2.45E-5                   -1.0233653673897656E-10  -4.512155928315374E-11   -9.216883694264447E-11   -1.1496802720492482E-10  -9.768904657063452E-11   1.3415464531421289E-11   5.4669248155361395E-11   2.1533051017401866E-11   5.991460526397957E-12    1.1211997230789334E-10   3.27201108126291E-11
2.4999999999999998E-5     -1.6265936581347826E-10  -9.666430422885683E-11   -1.526361225132414E-10   -1.6884812341698505E-10  -1.4117462723473546E-10  -1.308029873804989E-11   5.786747372947804E-11    2.640736139011671E-11    1.0184910420658504E-11   1.7921926570644007E-10   6.219319706821661E-11
2.55E-5                   -2.254522537908055E-10   -1.5254536258815895E-10  -2.1041461687517335E-10  -2.3172975881727025E-10  -1.8750304211905428E-10  -3.960105549352923E-11   5.4167076829265176E-11   2.986093707695919E-11    1.627484473008587E-11    2.493528224638861E-10    9.688069474762301E-11
2.6E-5                    -2.964237911347581E-10   -2.1452592195945868E-10  -2.6390156869569386E-10  -3.021710247200534E-10   -2.384479994567383E-10   -6.782103983977878E-11   4.023767433824054E-11    3.124086483831352E-11    2.2765894388462004E-11   3.248572935087532E-10    1.3880440810630505E-10
2.65E-5                   -3.7938915649890527E-10  -2.821398470002786E-10   -3.158386146291876E-10   -3.7389357576009346E-10  -2.9575611966287903E-10  -1.0346223092559366E-10  1.5818264571907008E-11   2.930283322568774E-11    2.753358287709849E-11    4.07561041144592E-10     1.8891166466436926E-10
2.7E-5                    -4.723657564867365E-10   -3.538731571570312E-10   -3.7001408939969054E-10  -4.402853401311576E-10   -3.596043451604934E-10   -1.4979383523600893E-10  -1.7052271962107145E-11  2.2213994670767536E-11   2.8948937149164567E-11   4.97604617875824E-10     2.4630679809605467E-10
2.7499999999999998E-5     -5.684424467566405E-10   -4.2967992565896794E-10  -4.2881076723168044E-10  -4.994257710593165E-10   -4.272108030119323E-10   -2.0399608067167064E-10  -5.644365498679378E-11   9.030470807842345E-12    2.653643137381343E-11    5.940524978083286E-10    3.0804873418270377E-10
2.8E-5                    -6.583561215716416E-10   -5.103548131122972E-10   -4.929078995469243E-10   -5.547718747512923E-10   -4.941258576315682E-10   -2.603670389088503E-10   -1.0160037315826076E-10  -8.822302181759723E-12   2.0943083146801576E-11   6.931545203214398E-10    3.706330217749073E-10
2.8499999999999998E-5     -7.331932765850576E-10   -5.947153411732915E-10   -5.613649976748935E-10   -6.106386277973534E-10   -5.569910470111332E-10   -3.161239717078531E-10   -1.5167790886736796E-10  -2.812153292519835E-11   1.3451513776002105E-11   7.858434897800039E-10    4.3222733073637496E-10
2.9E-5                    -7.873340291136486E-10   -6.777730756268563E-10   -6.306986320602832E-10   -6.662024651338984E-10   -6.134769303147387E-10   -3.7317339913880837E-10  -2.0422315615882083E-10  -4.6213703913251237E-11  5.11931891226352E-12     8.594955660794528E-10    4.92771165982237E-10
2.95E-5                   -8.193888414998659E-10   -7.506473742916203E-10   -6.938383033426623E-10   -7.129419471328197E-10   -6.590385248460599E-10   -4.3457308385750535E-10  -2.5577590067159554E-10  -6.262294496931603E-11   -4.316625307038976E-12   9.039113668817013E-10    5.513126759918199E-10
2.9999999999999997E-5     -8.286154588105443E-10   -8.017951245070969E-10   -7.402647113614176E-10   -7.374218384336076E-10   -6.855040644821949E-10   -4.999673233146839E-10   -3.043089094855526E-10   -7.838894623885387E-11   -1.6955705807554112E-11  9.152892375698664E-10    6.03884931441071E-10
3.05E-5                   -8.096059943356321E-10   -8.200200169026507E-10   -7.575084329510566E-10   -7.269432265054645E-10   -6.842187664260415E-10   -5.641343584119353E-10   -3.5089818302456787E-10  -9.465137346220777E-11   -3.567114182675559E-11   8.934766694674445E-10    6.445867820421538E-10
3.1E-5                    -7.512553455083667E-10   -7.983410519337427E-10   -7.338107899760188E-10   -6.735902513163032E-10   -6.497323514115721E-10   -6.188668753268303E-10   -3.985462643526744E-10   -1.1259622515394933E-10  -6.178872296491417E-11   8.351075047733743E-10    6.678618469874418E-10
3.15E-5                   -6.412869540861738E-10   -7.350034965586902E-10   -6.613424013134303E-10   -5.740976582814258E-10   -5.794931422176539E-10   -6.558044226408717E-10   -4.4864770113150583E-10  -1.3418482718217107E-10  -9.346092448910286E-11   7.295952314498645E-10    6.685084106831551E-10
3.2E-5                    -4.714049086423152E-10   -6.29512589920932E-10    -5.376825079199567E-10   -4.2682515654214367E-10  -4.709416454442873E-10   -6.683046869827946E-10   -4.977077199109335E-10   -1.6139137636738575E-10  -1.264131483410092E-10   5.619192349154075E-10    6.39974736890686E-10
3.25E-5                   -2.3877473386011616E-10  -4.773509259824008E-10   -3.6327189495728015E-10  -2.2933009276703406E-10  -3.2004628547687256E-10  -6.519312139824424E-10   -5.370994842541352E-10   -1.9390020927929726E-10  -1.5648430342907548E-10  3.195768424385893E-10    5.74390756868107E-10
3.2999999999999996E-5     5.5617984526183944E-11   -2.6929570619039214E-10  -1.3685905023239426E-10  2.1421096517102597E-11   -1.219345755637494E-10   -6.036480376352141E-10   -5.56764208507623E-10    -2.2809045718374983E-10  -1.8172000084416867E-10  -2.2783796702336464E-12  4.64933419897339E-10
3.35E-5                   4.0945523962165875E-10   3.697627499395789E-12    1.453567968685355E-10    3.273728536675824E-10    1.279209882662875E-10    -5.19898855132721E-10    -5.506590546705351E-10   -2.590237790062995E-10   -2.0255123492227559E-10  -4.0105500369464157E-10  3.073996739183625E-10
3.4E-5                    8.212601529862606E-10    3.450146570862804E-10    4.848660469747758E-10    6.883747071081101E-10    4.317474818003286E-10    -3.9480439667482485E-10  -5.195882339691729E-10   -2.833311209153882E-10   -2.2054010285166166E-10  -8.708288808078317E-10   9.933528514613437E-11
3.45E-5                   1.290598875251616E-9     7.508905862609567E-10    8.758897118793612E-10    1.1017323366082325E-9    7.865918984825423E-10    -2.207265174927981E-10   -4.68425683197375E-10    -2.998158023867657E-10   -2.369413068059751E-10   -1.4060860586337678E-9   -1.6095397225825834E-10
3.5E-5                    1.8144131421173177E-9    1.212264072562619E-9     1.306802804121029E-9     1.5605443510651522E-9    1.183588709662216E-9     8.172153387158624E-12    -3.994817846155292E-10   -3.076596682996893E-10   -2.5168089578089227E-10  -2.0019492991029382E-9   -4.733179948989168E-10
3.5499999999999996E-5     2.3816734081275234E-9    1.7166274594388934E-9    1.7664491222262928E-9    2.051158314344232E-9     1.6117659915072521E-9    2.923405967830518E-10    -3.075801571873279E-10   -3.04813194697983E-10    -2.628303128761292E-10   -2.650753108766423E-9    -8.342114412332253E-10
3.6E-5                    2.9722709573488905E-9    2.249036189299127E-9     2.2475903814450723E-9    2.5529411539101055E-9    2.0624239109709097E-9    6.27046616995379E-10     -1.8110538425349796E-10  -2.8806410890194373E-10  -2.6678579143567843E-10  -3.337318109642951E-9    -1.2372668690993235E-9
3.65E-5                   3.561832390270268E-9     2.793882569233607E-9     2.7432492831439552E-9    3.0421274834931648E-9    2.5275769318980485E-9    1.0061239916435339E-9    -7.99197483290914E-12    -2.5380840170384744E-10  -2.592006062845011E-10   -4.0361543399447736E-9   -1.6750565561697832E-9
3.7E-5                    4.126232665507623E-9     3.3367248653608812E-9    3.2398084961440617E-9    3.496943181596945E-9     2.993058522954556E-9     1.4247151948237469E-9    2.1830299701085445E-10   -1.984315907868265E-10   -2.360257371070168E-10   -4.7126872698222586E-9   -2.138869560122845E-9
3.75E-5                   4.6398265425956985E-9    3.862328418754961E-9     3.7135954543432093E-9    3.899626681682781E-9     3.434593851221296E-9     1.877629547507539E-9     4.969179198901526E-10    -1.1880866639078467E-10  -1.9392997212148205E-10  -5.3276209587037554E-9   -2.616227456841032E-9
3.7999999999999995E-5     5.070297642038516E-9     4.348099743946117E-9     4.133639481055716E-9     4.234219058140535E-9     3.822232300005907E-9     2.3551141498550133E-9    8.218150801432945E-10    -1.3594129844403287E-11  -1.3029306598082946E-10  -5.840918152488158E-9    -3.0895274116855683E-9
3.85E-5                   5.378036646725787E-9     4.75911493767088E-9      4.467998901003436E-9     4.482452037697806E-9     4.128655494613904E-9     2.8406185340679774E-9    1.1849830832398345E-9    1.1555346611526104E-10   -4.354198726559861E-11   -6.2126582683684E-9      -3.5378363591173174E-9
3.9E-5                    5.522260480960939E-9     5.051671435388819E-9     4.688957096541215E-9     4.62038233967412E-9      4.332996088544067E-9     3.3127397945728132E-9    1.5776506189013568E-9    2.642459461597742E-10    6.615699611628986E-11    -6.401801507403478E-9    -3.939335602076012E-9
3.95E-5                   5.467784041133492E-9     5.183693592006439E-9     4.77375197418013E-9      4.617440825965758E-9     4.41765494858421E-9      3.7492108160463265E-9    1.9892794901045345E-9    4.272674905427113E-10    1.9679795028365194E-10   -6.366050107762153E-9    -4.2710349138886505E-9
3.9999999999999996E-5     5.186110416930014E-9     5.122900018060289E-9     4.7008517385943474E-9    4.439159154615113E-9     4.362604159087156E-9     4.128860928521075E-9     2.4064272834243427E-9    6.009769137935874E-10    3.455709675369297E-10    -6.063957161451946E-9    -4.506553759848192E-9
4.0499999999999995E-5     4.6516371882147205E-9    4.8469233252139456E-9    4.445102699115294E-9     4.053524816795262E-9     4.142595349786801E-9     4.42944840117504E-9      2.8130862316057472E-9    7.85082806677357E-10     5.102702765753802E-10    -5.457591084110213E-9    -4.615916710625475E-9
4.1E-5                    3.83901704751992E-9      4.338437964630311E-9     3.976150009756117E-9     3.438000856394958E-9     3.729347258424638E-9     4.6235691017574806E-9    3.191692315604762E-9     9.828101845176312E-10    6.89872031080243E-10     -4.514505339036408E-9    -4.568944938282161E-9
4.15E-5                   2.725727221654937E-9     3.5814632057604907E-9    3.2626054441426865E-9    2.5828242005921712E-9    3.0976420829087416E-9    4.677542255400759E-9     3.522998630481932E-9     1.1982808934210316E-9    8.839423675586889E-10    -3.209964110615149E-9    -4.339421056627948E-9
4.2E-5                    1.298420698623763E-9     2.5612002209981377E-9    2.280812891244888E-9     1.488988922459812E-9     2.2324045025568546E-9    4.555823943845583E-9     3.7848266135271325E-9    1.431071737802104E-9     1.0913734160216127E-9    -1.530377580561174E-9    -3.906680821907594E-9
4.2499999999999996E-5     -4.412099623503339E-10   1.2666581237592432E-9    1.0238080013005324E-9    1.6403674053571713E-10   1.1330593475150752E-9    4.227922058634097E-9     3.951726951645658E-9     1.6708980112998814E-9    1.3088517677289524E-9    5.229626343718559E-10    -3.254676920419801E-9
4.2999999999999995E-5     -2.4740907431928254E-9   -3.0450036378410194E-10  -4.947546854645958E-10   -1.3796635502238672E-9   -1.8727307934903115E-10  3.67236531584896E-9      3.996910491013768E-9     1.8969973394300503E-9    1.5291520941173079E-9    2.9311661692180145E-9    -2.371036364064286E-9
4.35E-5                   -4.7648610279140265E-9   -2.1402603411586196E-9   -2.2438604657842674E-9   -3.122752949681411E-9    -1.7068119563047024E-9   2.8759368444202086E-9    3.895457631599176E-9     2.0838906184507075E-9    1.7397147366979742E-9    5.656030672946319E-9     -1.247833569121514E-9
4.4E-5                    -7.263561157411812E-9    -4.211211827460315E-9    -4.182285619646931E-9    -5.035656878569263E-9    -3.400289892181377E-9    1.8313595899245206E-9    3.6269006905386016E-9    2.2097911833124915E-9    1.9225634038351516E-9    8.638852818860937E-9     1.1604592222016381E-10
4.45E-5                   -9.9049813321598E-9      -6.472107186812994E-9    -6.2635931116227165E-9   -7.0773372012224474E-9   -5.239900630601271E-9    5.370727538752404E-10    3.1763899985724253E-9    2.2616208315645775E-9    2.05634394297134E-9      1.1800237996149571E-8    1.711806506024139E-9
4.4999999999999996E-5     -1.2606417675521032E-8   -8.864824160314472E-9    -8.436113264336153E-9    -9.19551399098695E-9     -7.190883438665098E-9    -1.0007061376167143E-9   2.534704545374448E-9     2.2337609301697504E-9    2.120004295651085E-9     1.5041714323380098E-8    3.517975264588386E-9
4.5499999999999995E-5     -1.5268122794680713E-8   -1.1318289502050874E-8   -1.0640497166822597E-8   -1.1325827152775577E-8   -9.205186259259087E-9    -2.765875681948368E-9    1.6973697807903818E-9    2.1228049980038156E-9    2.096460600343846E-9     1.824883035348771E-8     5.4993896835847855E-9
4.6E-5                    -1.77785607394089E-8     -1.3746325622131936E-8   -1.2808673070559973E-8   -1.339013627125969E-8    -1.1218668005823859E-8   -4.731718308261681E-9    6.633122762879027E-10    1.922860205402111E-9     1.974498823740417E-9     2.1294280059594252E-8    7.608713265039913E-9
4.65E-5                   -2.0020762041931712E-8   -1.6048752186764462E-8   -1.4864624656798562E-8   -1.529784122275798E-8    -1.3154461015744994E-8   -6.860817393536453E-9    -5.656547861529666E-10   1.6243459851243847E-9    1.7481707498795013E-9    2.403978082456054E-8     9.78921289486422E-9
4.7E-5                    -2.1875187366344277E-8   -1.8117631201195817E-8   -1.672509574382617E-8    -1.6952810954685655E-8   -1.4929971988603443E-8   -9.104107028439374E-9    -1.9830957947695896E-9   1.2162261533663338E-9    1.4143759586009555E-9    2.6336836455453778E-8    1.1976353177677356E-8
4.7499999999999996E-5     -2.3220296025536628E-8   -1.9844053312965508E-8   -1.8300188899564814E-8   -1.8262852580484833E-8   -1.646276086114982E-8    -1.1398875515998467E-8   -3.5740825140060576E-9   6.896666549253375E-10    9.703872155966473E-10    2.8028250214944376E-8    1.4097320735952289E-8
4.8E-5                    -2.3935711989024108E-8   -2.1120630024811705E-8   -1.9496111372179223E-8   -1.9145685856158556E-8   -1.7672900284139806E-8   -1.3667622804180919E-8   -5.311163333275555E-9    4.098221527149881E-11    4.131635205637681E-10    2.8953034825648144E-8    1.6070208959599455E-8
4.85E-5                   -2.390905837226627E-8    -2.184123324148261E-8    -2.0220903014967514E-8   -1.952908869066177E-8    -1.8482983404163076E-8   -1.5820024130943154E-8   -7.152543917292161E-9    -7.270717357040605E-10   -2.587992919513983E-10   2.895602837104778E-8     1.7805159353529464E-8