% Model:              Untitled.mph
% Version:            COMSOL 6.0.0.405
% Date:               Jul 16 2025, 14:15
% Dimension:          1
% Nodes:              401
% Expressions:        11
% Description:        Point graph
% Time (s)                Displacement field, Y component Displacement field, Y component Displacement field, Y component Displacement field, Y component Displacement field, Y component Displacement field, Y component Displacement field, Y component Displacement field, Y component Displacement field, Y component Displacement field, Y component Displacement field, Y component
0                         -3.8987917603076754E-32  -4.797203537116859E-32   -3.0106652716024575E-30  -1.1080531956132317E-30  -3.500627379978386E-30   -3.741754756424944E-30   -5.095487362429932E-34   -2.570434841808047E-33   1.588641181881487E-30    2.1677058733721992E-30   1.0794772266352907E-31
5.0E-7                    -2.989547051911967E-23   -2.3798652294903186E-23  6.483293392863242E-22    5.016311282040416E-22    -1.1288587958352883E-21  -5.845091655320984E-21   1.5733266889267592E-24   -6.924294721433608E-25   3.685868352564278E-22    3.186378382865092E-22    -7.735643558089106E-24
1.0E-6                    1.7482551053763224E-22   3.0145155930385964E-22   9.161319778136015E-22    1.2260256790879154E-21   1.1790582018208761E-20   1.9737206387688732E-20   -9.766824660089461E-24   9.224959899777293E-24    -6.001824985010196E-21   -4.0050775092939794E-21  -1.1116435101182573E-22
1.5E-6                    -2.6873181108923436E-22  -9.359795107972627E-22   -1.5612714817339263E-20  -1.6261197616107268E-20  -4.914268835374224E-20   -9.525735718620652E-20   -5.134846934777032E-24   -3.794705204610589E-23   2.2705283449641614E-20   2.1859886507586882E-20   3.1387308910095346E-22
2.0E-6                    -5.892341283113582E-23   -1.1954005679780173E-21  1.556183879039241E-20    3.492066431597392E-20    1.294080583889901E-19    2.702751163187884E-19    1.2154840124940115E-22   6.52812635805614E-23     -3.952634903527678E-20   -8.368199734316139E-20   -1.1275549000529155E-21
2.4999999999999998E-6     -9.267117648019116E-22   8.813495176725326E-21    3.4532228990705807E-20   -1.4113999191464476E-20  -4.7871872630939476E-20  5.613066037476087E-19    -1.7473561008835202E-22  4.821435102287391E-23    2.6874472321265364E-20   8.907542758599057E-20    1.2978938836970982E-21
3.0E-6                    1.5544606293724693E-21   1.1486296409018747E-21   1.084397152809785E-19    -1.4710269498591497E-19  -4.98752617109802E-19    -1.5857965224202037E-18  -4.047478567148284E-22   -3.518705701365516E-22   1.0413657532541336E-19   2.6948196560930817E-19   2.430189000132969E-22
3.5E-6                    1.6976787112525525E-20   -3.8299842612486293E-20  -1.8886289347057933E-19  3.861615269008073E-19    7.673326481484532E-19    -3.3748563260543424E-18  1.3251778037727912E-21   5.890655684237719E-23    -3.2198169669508345E-19  -6.6248798262093225E-19  1.4867869587055516E-20
4.0E-6                    -1.2191305137497053E-20  -2.0299826956730582E-20  -6.399415899084026E-19   6.317492781781141E-19    -1.999824558563675E-19   1.166967130051239E-18    -6.54709832238951E-22    9.24235167765018E-22     1.835147696796432E-19    6.294694341846216E-19    1.658969324800234E-20
4.5E-6                    -1.2416239954221959E-19  1.0502475896727962E-19   -3.6347751225864255E-19  -2.118169477665226E-18   -3.557080464963552E-18   1.436023076495465E-17    -6.0160606784740495E-21  5.889825899290485E-22    -2.284486165509089E-19   1.7890693495983223E-18   -1.3754934671667942E-19
4.9999999999999996E-6     -2.67049604401208E-20    2.0747115675373995E-19   9.221160255131965E-19    -3.759692638371379E-18   5.6686543712244395E-18   2.369995953280952E-17    8.912531617601801E-21    -8.732310310431296E-22   -1.5435767546914167E-18  -9.886609682632841E-18   -1.4097581747991897E-19
5.5E-6                    5.884674690566252E-19    -2.3930314470498237E-19  7.560148446796879E-18    7.264473894143156E-18    2.0264812955824447E-17   -2.078166208056262E-17   3.084536308477678E-20    -6.488446757311967E-21   1.0323672719295915E-17   -6.661711234872335E-18   3.887201444866098E-19
6.0E-6                    8.335975553267223E-19    -1.0800376625199891E-18  4.847232540425399E-18    1.6695692916519604E-17   -5.14067709506817E-18    -1.2463421982553145E-16  -2.1188814148323887E-21  -6.4357988997311235E-21  1.179850506732278E-17    5.637248324679274E-17    6.596741275630419E-19
6.5E-6                    -1.4603991809855131E-18  1.7485146335391052E-19   -3.986244933369361E-17   -1.995009594201725E-17   -8.628795705762091E-17   -8.806710144510687E-17   -1.740751271022838E-19   2.924496975964705E-20    -5.903881833196542E-17   5.009657298193143E-17    2.39173652671484E-19
7.0E-6                    -6.054917184191286E-18   2.823404654308287E-18    -5.381559139532956E-17   -6.180117909865422E-17   -1.1483347705805098E-16  2.5569711290144103E-16   -6.200732034622004E-19   1.7998157544085656E-20   -8.45696036222404E-17    -1.9500428375050263E-16  2.245142273164327E-19
7.499999999999999E-6      -3.1167902991597578E-18  9.97940623972234E-19     9.313142102680326E-17    3.9177997350504485E-17   1.673033098707775E-16    4.687796466057902E-16    -4.310802730135873E-19   -1.4777620403068628E-19  1.8033529005962324E-16   -2.4226342134790843E-16  -2.2698586248481123E-19
8.0E-6                    2.1944791749235572E-17   -1.1027035783894395E-18  1.4846488448936746E-16   1.8232335157888283E-16   6.850913599268244E-16    -8.378443151571336E-17   3.178998075758565E-18    7.825108891315702E-20    4.341113792441321E-16    5.399877793488098E-16    -4.556020572606352E-18
8.5E-6                    4.4706874346830195E-17   -2.820864529853938E-18   -3.1398462170194066E-16  -1.2380052074251088E-16  1.7925123822220327E-16   -8.061600616293345E-16   7.182960144961387E-18    1.0649219422202305E-18   -1.2223633314331346E-16  1.0015085897719672E-15   -1.4107953633473342E-17
9.0E-6                    -2.89923424482394E-17    -3.735160653818919E-17   -4.744871447518937E-16   -7.244730274850711E-16   -2.26992387206509E-15    -3.437037910194741E-16   -6.923072811385228E-18   -2.771391077430644E-19   -1.2054294468077287E-15  -8.947199249554961E-16   -1.2177336088296907E-17
9.499999999999999E-6      -2.1435680069352424E-16  -7.934759222609593E-17   8.605076570817456E-16    2.729725605729685E-17    -2.787858175586074E-15   4.552485457662129E-16    -4.483467648408729E-17   -6.8466844570175606E-18  -9.043280825323455E-16   -2.543521481070277E-15   7.237490134250698E-17
9.999999999999999E-6      -1.9285567787155325E-16  2.921769163456915E-17    5.766239355235161E-16    2.3483394765276997E-15   4.614244227910476E-15    -9.79882840497128E-16    -4.16499668991922E-17    -5.970502985987701E-18   2.089835989951062E-15    2.1443293236939635E-15   2.8182103295647054E-16
1.05E-5                   4.084863900088313E-16    2.071047134296983E-16    -5.736248976264348E-15   7.15577078360882E-16     1.2105273624455342E-14   -2.60639069602893E-15    8.124084200861673E-17    2.375685097402015E-17    5.936750271345884E-15    8.629265649811849E-15    2.717439422677413E-16
1.1E-5                    9.569750431397456E-16    -3.009611439316924E-16   -8.423108956809674E-15   -9.094255617732503E-15   -3.621650739023446E-15   2.6563017258213126E-15   1.9071398037359062E-16   5.0891032583002285E-17   4.731936011222157E-15    1.1504313601909572E-15   -6.206172266174355E-16
1.15E-5                   -2.949884460592634E-16   -2.00830434168436E-15    8.759246974033323E-15    -1.2209937885555732E-14  -3.830765128816894E-14   1.2601100563255124E-14   -7.818356466977223E-17   -3.2010904441281035E-17  -6.70086454520025E-15    -1.3014803451193808E-14  -1.7112977037064626E-15
1.2E-5                    -3.370672822971844E-15   -3.0873051661349103E-15  1.947670842776352E-14    1.3832663371113242E-14   -2.822997880158864E-14   7.732668648061571E-15    -7.770419451189711E-16   -2.2811041441149566E-16  -1.568082590561294E-14   9.863119309421352E-15    3.6344881620414897E-16
1.2499999999999999E-5     -3.966505479161692E-15   -6.034147706858693E-16   -4.238395439438575E-14   3.788788654591502E-14    6.524294000200902E-14    -2.2250628134558384E-14  -1.1767247343198586E-15  -2.051876776138512E-16   1.3665304359350103E-14   7.55288796799473E-14     7.30776781702648E-15
1.3E-5                    1.3583563491441925E-15   1.0703996285410353E-15   -1.5016200541478236E-13  -3.260102193314397E-14   1.2239607932694636E-13   -4.504035491420947E-14   -5.332447331676232E-16   3.958789957456695E-16    8.519406937793086E-14    8.832695690738273E-14    1.1506205272028193E-14
1.35E-5                   4.549804945118311E-15    -1.4201631355865462E-14  -1.27277601268139E-13    -1.9121410277264362E-13  -4.44392679385163E-14    -1.6233961150720308E-14  3.1777813831545173E-16   1.0182091003980987E-15   1.0999994274391287E-13   -1.1524272658398033E-14  1.8208876629311463E-15
1.4E-5                    -1.0280807193752251E-14  -5.3249090623556895E-14  5.965917843157499E-14    -2.025513694604861E-13   -3.4446682962308036E-13  3.6977244320711E-14      -1.4767072864039801E-15  3.036476426241016E-17    1.697088833318397E-14    -2.4023275189946815E-14  -1.2153234508598494E-14
1.45E-5                   -4.0759762012767606E-14  -8.510405779879614E-14   -2.111289081446784E-14   9.128962498010036E-14    -3.257644945068712E-13   1.8008585157040635E-14   -9.200267263485786E-15   -3.1134162278080536E-15  -1.07302776388281E-14    3.734962212618376E-13    4.998139902801746E-15
1.4999999999999999E-5     -5.729315619961547E-14   -8.142286940160822E-14   -8.560053408365761E-13   2.2561084361928387E-13   2.2471781178449766E-13   -8.634101161238072E-14   -2.347184474740825E-14   -5.2029046169838126E-15  3.783308596042485E-13    1.0883272646188315E-12   6.594886313489055E-14
1.55E-5                   -5.688763389498649E-14   -1.310388480066813E-13   -2.0357116716099135E-12  -6.431441654019301E-13   6.403436268167978E-13    -1.1824329709796122E-13  -3.869422093239336E-14   -1.323361361283418E-15   1.1432132686404955E-12   1.4912952909023455E-12   1.2081879852516274E-13
1.6E-5                    -1.2583713317303999E-13  -4.416711782932028E-13   -2.3573362835087166E-12  -2.4039983844498112E-12  -1.1715972866552754E-13  1.618637572550774E-14    -4.6900980884498275E-14  6.693992293519623E-15    1.6588723555911378E-12   1.3339907587003221E-12   1.3659365901864517E-13
1.6499999999999998E-5     -3.785063383126945E-13   -1.0951496790963937E-12  -1.7272807714637243E-12  -3.3882070045880623E-12  -1.9690525022209462E-12  1.1966898797040292E-14   -6.350101430667527E-14   4.556691106838171E-15    1.7022762637694173E-12   1.7513544519277026E-12   2.3521725748900913E-13
1.7E-5                    -7.937313210007515E-13   -1.8863721134812985E-12  -2.638663449625602E-12   -2.404673325452938E-12   -3.2452240310102718E-12  -6.375030309523331E-13   -1.6288317042122568E-13  -2.342965654168933E-14   2.582563431401373E-12    4.666521175244718E-12    6.37058347753591E-13
1.75E-5                   -1.2384859179339475E-12  -2.751614526402795E-12   -8.296985042845212E-12   -1.6319731674257505E-12  -2.5195840056339412E-12  -1.824698377920191E-12   -4.597538115449431E-13   -6.94626773446294E-14    6.3482941105348795E-12   1.077446463243435E-11    1.3698469136363613E-12
1.8E-5                    -1.853913643440585E-12   -4.475594143525821E-12   -1.8555446389589528E-11  -5.812403282448113E-12   -9.436681634623236E-13   -2.4364883086906023E-12  -9.996267117249107E-13   -9.771436302287842E-14   1.3315386316153835E-11   1.8538330994175657E-11   2.1849795667949507E-12
1.85E-5                   -3.3712833279851874E-12  -8.481702649268139E-12   -2.882931306590226E-11   -1.7008365932411374E-11  -1.9152072891743504E-12  -1.4384631445304943E-12  -1.683569165894748E-12   -9.49536649533961E-14    2.1106094402123156E-11   2.5696503051509364E-11   3.0381499050015063E-12
1.8999999999999998E-5     -6.6591534208629114E-12  -1.531037384724612E-11   -3.446057866816549E-11   -3.099206360889192E-11   -7.888843972268715E-12   3.112826598714845E-13    -2.439671334247436E-12   -1.4396479561427256E-13  2.7002322062165172E-11   3.144540534523076E-11    4.603648163410175E-12
1.95E-5                   -1.1666048145572644E-11  -2.338293585908914E-11   -3.577326341249028E-11   -4.082357781086499E-11   -1.7909305261377072E-11  -1.6856627843625885E-13  -3.587491484200672E-12   -4.1231027076557045E-13  3.079477796563258E-11    3.6462068897014115E-11   7.836395174212228E-12
1.9999999999999998E-5     -1.707208984411738E-11   -2.988952550842679E-11   -3.713946998415963E-11   -4.3942826862961184E-11  -2.870257892085309E-11   -5.543375968688831E-12   -5.911265843666385E-12   -1.0067861896714663E-12  3.4236284129177517E-11   4.087638574668257E-11    1.2687070916388376E-11
2.05E-5                   -2.1512759711963118E-11  -3.3131876341222766E-11  -4.06069100525207E-11    -4.365309312393477E-11   -3.7600073126825194E-11  -1.5178521871849318E-11  -1.0029707776762735E-11  -1.8455353098373625E-12  3.778634942784013E-11    4.3025342147588374E-11   1.7536157240772795E-11
2.1E-5                    -2.513468435241326E-11   -3.3653306594893766E-11  -4.2078193412450286E-11  -4.313672901461989E-11   -4.35048634864079E-11    -2.4964041218847398E-11  -1.5460671216356987E-11  -2.783422169709582E-12   3.9094631390274685E-11   4.059388074324028E-11    2.0401521088614674E-11
2.1499999999999997E-5     -2.925052885389663E-11   -3.29699670621112E-11    -3.537289862317875E-11   -4.046703993526047E-11   -4.5447434356077686E-11  -3.048357068097097E-11   -2.0462998354889394E-11  -3.950258216777438E-12   3.523029552337662E-11    3.2610023343679474E-11   2.0648041662460713E-11
2.2E-5                    -3.4020264959198095E-11  -3.1641101501826834E-11  -1.9477793247303557E-11  -3.129526656020475E-11   -4.197160263186197E-11   -3.031357303689426E-11   -2.318966867788815E-11   -5.873531837995117E-12   2.5719220214296032E-11   1.9986514941761497E-11   1.8981352764583765E-11
2.2499999999999998E-5     -3.7054332203976125E-11  -2.8791805223269877E-11  2.42571644342448E-13     -1.4613005946248565E-11  -3.2934209067222606E-11  -2.6192255439469422E-11  -2.3179785311330057E-11  -9.042293612123288E-12   1.2756206804826018E-11   4.301878389949538E-12    1.5723327150338354E-11
2.3E-5                    -3.527808706500422E-11   -2.3080270327464083E-11  1.8845275979566078E-11   6.835099316618825E-12    -2.0746487853356944E-11  -2.0479032379375745E-11  -2.1517166564730766E-11  -1.3216778637630364E-11  -1.3358170326723726E-12  -1.3741618060334587E-11  9.901348808817514E-12
2.35E-5                   -2.827367803644302E-11   -1.3742942455273098E-11  3.83354262360069E-11     3.1129178032602455E-11   -7.979753767855446E-12   -1.4042468618017972E-11  -1.9279634904281635E-11  -1.725026987378079E-11   -1.6511958199911055E-11  -3.496845318717804E-11   6.816119983606985E-13
2.4E-5                    -1.8883721564395116E-11  -8.241463112684864E-13   6.555458280081146E-11    5.918184407298013E-11    6.414414923829622E-12    -6.3533831019334215E-12  -1.59538871675113E-11    -1.9773139484031068E-11  -3.520167662007829E-11   -6.133450360096593E-11   -1.08261902619302E-11
2.45E-5                   -9.818312952019623E-12   1.5574863926027045E-11   1.0382229170135743E-10   9.166276603420811E-11    2.6976966442129734E-11   3.436436268761953E-12    -9.734357217020654E-12   -2.0177418868873292E-11  -6.057046542651739E-11   -9.484678567815058E-11   -2.2303258454232052E-11
2.4999999999999998E-5     2.4864047639974262E-14   3.661045485782438E-11    1.487776241108608E-10    1.2660249738263446E-10   5.6951601087839874E-11   1.6123417876214024E-11   5.647599253075922E-13    -1.8989031007359468E-11  -9.438661999594255E-11   -1.362601753439526E-10   -3.2970188246851706E-11
2.55E-5                   1.5203498545798725E-11   6.509980216632158E-11    1.9352398713538153E-10   1.6185712854097586E-10   9.450522798932612E-11    3.249240057973412E-11    1.4316423991742488E-11   -1.7288906482671372E-11  -1.3587636822545443E-10  -1.8423142154705932E-10  -4.46688094366909E-11
2.6E-5                    3.9647611560794345E-11   1.034761791892446E-10    2.362011178470153E-10    1.9856278067687948E-10   1.347503903802692E-10    5.2654030706037763E-11   3.011473693640433E-11    -1.563687274180123E-11   -1.8213004247813093E-10  -2.355910860296151E-10   -5.950560059175E-11
2.65E-5                   7.328773921864509E-11    1.5041459627566437E-10   2.8030418559063615E-10   2.400641761173462E-10    1.7487588893224547E-10   7.520568555896173E-11    4.7669061753221815E-11   -1.3245838828460448E-11  -2.2963419389812957E-10  -2.8664041779223723E-10  -7.6980580878137E-11
2.7E-5                    1.1263872638351459E-10   1.9998821536026888E-10   3.2787757697598664E-10   2.8737602117747573E-10   2.1576853465176162E-10   9.781918746289078E-11    6.80013302274419E-11     -8.004544638276138E-12   -2.758397014470112E-10   -3.345023669680705E-10   -9.442876836774702E-11
2.7499999999999998E-5     1.5409037570249446E-10   2.4547706699205985E-10   3.746487671187021E-10    3.3672854901343387E-10   2.584780931427884E-10    1.1911285878208585E-10   9.164045373415022E-11    2.39501007781532E-12     -3.1983965228703553E-10  -3.7760923516339356E-10  -1.1018920157002568E-10
2.8E-5                    1.9636185170285658E-10   2.847001357299495E-10    4.1278995067900895E-10   3.8152507985831123E-10   3.0069991270523093E-10   1.3956041617582845E-10   1.1729444194970815E-10   1.8673200607673242E-11   -3.619658264828252E-10   -4.1524405057022523E-10  -1.2519222090694445E-10
2.8499999999999998E-5     2.4030526796509805E-10   3.214692502262571E-10    4.3698019695683436E-10   4.157943136813299E-10    3.378741890437038E-10    1.6019679144973225E-10   1.4290721139660237E-10   3.890183108946945E-11    -4.0255293956074987E-10  -4.46550984685249E-10    -1.4079503212366306E-10
2.9E-5                    2.869604165328041E-10    3.615857083681281E-10    4.462566111604605E-10    4.3559645973497834E-10   3.669540520273706E-10    1.807990987692658E-10    1.6768372042968157E-10   5.956236986148228E-11    -4.4016237284375406E-10  -4.693537055179069E-10   -1.5573397891583728E-10
2.95E-5                   3.3562999515031246E-10   4.0709499584169485E-10   4.4059517156200186E-10   4.380488621839128E-10    3.876763545965507E-10    1.9974874727562585E-10   1.9220265872965756E-10   7.837535726993013E-11    -4.700388953351661E-10   -4.792704439006359E-10   -1.6613681490540617E-10
2.9999999999999997E-5     3.831832073851253E-10    4.534606947856327E-10    4.175343312854841E-10    4.2012903203410164E-10   4.000163308250927E-10    2.1517302278466833E-10   2.1630631105082166E-10   9.644534255977752E-11    -4.843499274833959E-10   -4.699582381035346E-10   -1.684622335063489E-10
3.05E-5                   4.2506734276729E-10      4.91039941878384E-10     3.7263726776412357E-10   3.7901128719856154E-10   4.0131185986096774E-10   2.252560329546675E-10    2.374954878294942E-10    1.1743533519295077E-10   -4.750260872087578E-10   -4.347410287665451E-10   -1.6172592192945786E-10
3.1E-5                    4.5742525847295073E-10   5.089837771326155E-10    3.01767439721598E-10     3.1338193982948356E-10   3.860736565994959E-10    2.2733093085459864E-10   2.518068360617993E-10    1.4427818662191687E-10   -4.3728656790039627E-10  -3.6847152916563963E-10  -1.4676671352511983E-10
3.15E-5                   4.783994720859982E-10    4.988660026601956E-10    2.014673526764018E-10    2.2352957739968024E-10   3.476966063929476E-10    2.1764457908597808E-10   2.558662072940839E-10    1.7635842859850317E-10   -3.703096259040016E-10   -2.68150256571771E-10    -1.2403387342923714E-10
3.2E-5                    4.86953028916368E-10     4.5627223755699394E-10   6.774516944565953E-11    1.0927384552598866E-10   2.7992076768517287E-10   1.9285637129939262E-10   2.477113152012258E-10    2.0946242036634229E-10   -2.741315076363079E-10   -1.3233164705525954E-10  -9.246650172060105E-11
3.25E-5                   4.80058737632576E-10     3.800991873103127E-10    -1.032584099353748E-10   -3.206805778603285E-11   1.7783605861447005E-10   1.5167292947950692E-10   2.261408413162566E-10    2.3810607513585626E-10   -1.4638514716255934E-10  3.938214169410854E-11    -5.002866855065608E-11
3.2999999999999996E-5     4.512308402136248E-10    2.7076449381834946E-10   -3.1183581546457503E-10  -2.047758595566963E-10   3.9381726109380476E-11   9.462556231715999E-11    1.9011382715570224E-10   2.5814565635220974E-10   1.7043709251937432E-11   2.462095844294145E-10    5.1826184888339175E-12
3.35E-5                   3.922183147881278E-10    1.2894378147813387E-10   -5.523410158406033E-10   -4.1139478515621004E-10  -1.3332845376665058E-10  2.2419637669705046E-11   1.3878433557619012E-10   2.679850884737245E-10    2.1819627212329812E-10   4.861532746154679E-10    7.399161162449009E-11
3.4E-5                    2.9645267882293134E-10   -4.46655214078032E-11    -8.155632577979292E-10   -6.504927723312385E-10   -3.349099516265603E-10   -6.505435061799099E-11   7.134426220281832E-11    2.6797465563105936E-10   4.547716658395271E-10    7.563652739168608E-10    1.554663653898703E-10
3.45E-5                   1.6136664688685492E-10   -2.4936318401361615E-10  -1.0939291626325726E-9   -9.171160538188291E-10   -5.600287716179627E-10   -1.681585081312857E-10   -1.354342279198627E-11   2.586717795733758E-10    7.218723441355997E-10    1.0529920407838871E-9    2.4686941604009874E-10
3.5E-5                    -1.1734073716734079E-11  -4.848089661323488E-10   -1.383556283546238E-9    -1.2036885250881336E-9   -8.060849651610502E-10   -2.864302076069186E-10   -1.1760720206230986E-10  2.393313066662401E-10    1.0149068363058498E-9    1.369964531866358E-9     3.445254356492216E-10
3.5499999999999996E-5     -2.1939349577548807E-10  -7.510175959982779E-10   -1.6803102476384951E-9   -1.49941459782361E-9     -1.072052475012612E-9    -4.18079423572272E-10    -2.41526606488095E-10    2.0781652837995864E-10   1.3296057896087084E-9    1.697785136514737E-9     4.448577731423077E-10
3.6E-5                    -4.5798406199547334E-10  -1.0471074592996669E-9   -1.9740668309772636E-9   -1.7900052684492013E-9   -1.3541017271946893E-9   -5.599389784682497E-10   -3.834499230133374E-10   1.6171660787009867E-10   1.6591854549472747E-9    2.023578377738393E-9     5.444345789838032E-10
3.65E-5                   -7.251862515685047E-10   -1.3692485770941222E-9   -2.2476891735147743E-9   -2.060023176720401E-9    -1.6421680603651752E-9   -7.073248048169406E-10   -5.391478813404927E-10   9.916660043378754E-11    1.992116655138164E-9     2.332193512647435E-9     6.390955738754728E-10
3.7E-5                    -1.0202608179223538E-9   -1.7091748762501078E-9   -2.4816339658717483E-9   -2.29585693391535E-9     -1.920662420924261E-9    -8.538133287621653E-10   -7.036180998077823E-10   1.847815855945647E-11    2.3126021889230953E-9    2.607205136269179E-9     7.234664744932722E-10
3.75E-5                   -1.3422338580002264E-9   -2.05400598577938E-9     -2.658539280062325E-9    -2.48521657215051E-9     -2.172193168969745E-9    -9.91225923319149E-10    -8.721770160366394E-10   -8.249307401409832E-11   2.6025018187588423E-9    2.8312183579349943E-9    7.915954642309716E-10
3.7999999999999995E-5     -1.6862936762896851E-9   -2.387043694869433E-9    -2.7629687372529793E-9   -2.61340361366388E-9     -2.380458138844E-9       -1.109917810709553E-9    -1.0397306966719078E-9   -2.0583260489778268E-10  2.842634797845444E-9     2.9856868958866303E-9    8.378810243936104E-10
3.85E-5                   -2.04087144324959E-9     -2.688902776916448E-9    -2.778201416354219E-9    -2.661472710806377E-9    -2.5300400674420467E-9   -1.1995168402055575E-9   -1.199192001666905E-9    -3.5197860103822724E-10  3.0131853124465087E-9    3.050718585356836E-9     8.570614422206888E-10
3.9E-5                    -2.3882032914440974E-9   -2.9386460283597367E-9   -2.6853637971284416E-9   -2.609284534274581E-9    -2.6043269997484863E-9   -1.2503329372307069E-9   -1.3409634080071097E-9   -5.18485789266891E-10    3.0941736953779164E-9    3.005523636874373E-9     8.433155075055742E-10
3.95E-5                   -2.7081596727241E-9      -3.1149496037179686E-9   -2.4663908789404242E-9   -2.4401763984780942E-9   -2.584371888269068E-9    -1.2549472668976657E-9   -1.453876407312991E-9    -7.001761096817778E-10   3.066358102084969E-9     2.830094892852527E-9     7.898760181014124E-10
3.9999999999999996E-5     -2.9817535923729045E-9   -3.197513681237949E-9    -2.1075080458680253E-9   -2.1425256702495306E-9   -2.4502957373643728E-9   -1.2085954733225416E-9   -1.5262471999413778E-9   -8.903650380788344E-10   2.912067012446981E-9     2.5077643709665455E-9    6.902687730664321E-10
4.0499999999999995E-5     -3.191295470856737E-9    -3.1686199306398375E-9   -1.60047693098786E-9     -1.7082935669120027E-9   -2.1846543204772254E-9   -1.1075589678840255E-9   -1.5462533117160132E-9   -1.0820399195776775E-9   2.6156825388512343E-9    2.027245558351187E-9     5.404939837472451E-10
4.1E-5                    -3.318194433779942E-9    -3.013923507809399E-9    -9.424389820481862E-10   -1.1321227599037994E-9   -1.7757912575072904E-9   -9.468301677556477E-10   -1.5025665772978797E-9   -1.2680696473639706E-9   2.16424392086911E-9      1.3831601415666722E-9    3.402188820298967E-10
4.15E-5                   -3.3418161039471412E-9   -2.721472527808191E-9    -1.361575052378749E-10   -4.124521289410458E-10   -1.2191946480310707E-9   -7.194457097229366E-10   -1.3860253586435903E-9   -1.4405077234247672E-9   1.5487504492586396E-9    5.755785005565268E-10    9.205883399182644E-11
4.2E-5                    -3.240862925079623E-9    -2.2795419030789134E-9   8.09285571538694E-10     4.468604757318896E-10    -5.162916643864147E-10   -4.1850431172294605E-10  -1.1910460050041055E-9   -1.590111961360134E-9    7.660011377788891E-10    -3.900637567732584E-10   -1.9979304542009E-10
4.2499999999999996E-5     -2.9956937615230217E-9   -1.6757083477448475E-9   1.877986652922394E-9     1.4352105075218232E-9    3.2774352762674583E-10   -4.052328053995215E-11   -9.149196879141805E-10   -1.707094219448339E-9    -1.7993809080340354E-10  -1.5019605198611361E-9   -5.297994499439246E-10
4.2999999999999995E-5     -2.58985868712088E-9     -8.992234302810168E-10   3.0467617222174662E-9    2.5335256744498077E-9    1.3045236951826776E-9    4.119866903153284E-10    -5.556781287235622E-10   -1.782456130500249E-9    -1.2773456158130134E-9   -2.740304986753064E-9    -8.901515482743882E-10
4.35E-5                   -2.0110586886375604E-9   5.382570885454096E-11    4.28468955530035E-9      3.7128963999531505E-9    2.400106701539682E-9     9.296905418695857E-10    -1.1154735762421785E-10  -1.807978241350464E-9    -2.507161093165371E-9    -4.0761114069001235E-9   -1.2700996197241884E-9
4.4E-5                    -1.252413367944071E-9    1.1753408902933586E-9    5.553444849498694E-9     4.935746829455812E-9     3.5914455787770633E-9    1.4969624789777363E-9    4.1643794251228983E-10   -1.7742303449954608E-9   -3.842961303189204E-9    -5.471301434643935E-9    -1.6561377331721126E-9
4.45E-5                   -3.138416935152775E-10   2.443045865515568E-9     6.8085874097797555E-9    6.1591925255459356E-9    4.8446977254978425E-9    2.093071712999822E-9     1.0207722145518441E-9    -1.668825710587271E-9    -5.250252358779787E-9    -6.8799599810519126E-9   -2.032197442662925E-9
4.4999999999999996E-5     7.972956936320936E-10    3.822843735170351E-9     8.00066305184741E-9      7.336950085087766E-9     6.1167606964810695E-9    2.6935943841263984E-9    1.6861165225965036E-9    -1.4778221226543871E-9   -6.685970426191487E-9    -8.249855364497082E-9    -2.379374247358009E-9
4.5499999999999995E-5     2.0664150424601057E-9    5.274531738562481E-9     9.07565490419618E-9      8.418028260479531E-9     7.358364199413012E-9     3.2718461283853103E-9    2.3909922726173184E-9    -1.1901524909394667E-9   -8.099162671330219E-9    -9.523480885392286E-9    -2.6761521574668717E-9
4.6E-5                    3.4719310758491794E-9    6.756801430991063E-9     9.976189464191176E-9     9.345573725286423E-9     8.515963584343203E-9     3.800189893702681E-9     3.1103868444297367E-9    -8.014792509281004E-10   -9.432672188213638E-9    -1.0638889464118064E-8   -2.9000443865455153E-9
4.65E-5                   4.984583930186721E-9     8.227090520779069E-9     1.0644534284887676E-8    1.0059998845525075E-8    9.531648525848876E-9     4.251048083230284E-9     3.817208723113598E-9     -3.141550390605788E-10   -1.0624969115070954E-8   -1.1531269746947055E-8   -3.029899192224786E-9
4.7E-5                    6.566023755896614E-9     9.636200129811052E-9     1.1026080383316705E-8    1.050533167322923E-8     1.0342968845465237E-8    4.5973601670354005E-9    4.482547244614571E-9     2.6604763409333094E-10   -1.1611941095664898E-8   -1.2135833160556553E-8   -3.0473190314886337E-9
4.7499999999999996E-5     8.168088012517606E-9     1.0923441288727672E-8    1.1071617121252543E-8    1.0633835257219799E-8    1.0884987588087943E-8    4.812378777359098E-9     5.075605439059043E-9     9.32539475516223E-10     -1.232924131702306E-8    -1.2391686759310682E-8   -2.9368769873003943E-9
4.8E-5                    9.734142592224915E-9     1.201855185105768E-8     1.0738979540058226E-8    1.0406549902202723E-8    1.1094794667355352E-8    4.869353157048078E-9     5.56355268377017E-9      1.676977837452992E-9     -1.271534378799342E-8    -1.2245760225132742E-8   -2.6862753739554083E-9
4.85E-5                   1.1201880554198533E-8    1.2850040020956717E-8    9.995621826046269E-9     9.792424503680703E-9     1.0916674146939732E-8    4.7422739026400115E-9    5.911471169763408E-9     2.4858292194842042E-9    -1.2714470105826225E-8   -1.1655828905933094E-8   -2.287387148136557E-9