% Model:              Untitled.mph
% Version:            COMSOL 6.0.0.405
% Date:               Jul 15 2025, 14:41
% Dimension:          1
% Nodes:              401
% Expressions:        11
% Description:        Point graph
% Time (s)                Displacement field, Y component Displacement field, Y component Displacement field, Y component Displacement field, Y component Displacement field, Y component Displacement field, Y component Displacement field, Y component Displacement field, Y component Displacement field, Y component Displacement field, Y component Displacement field, Y component
0                         -5.0849623573605974E-33  -1.647240175962265E-32   -2.6724724894318305E-32  1.1018781359538878E-32   1.7330442798488028E-32   4.388188226396506E-32    3.8734051090654816E-33   -6.45702182947485E-35    6.981179470139914E-36    7.013403262479383E-35    4.744938852258659E-34
5.0E-7                    9.19894365235419E-25     2.815418193852723E-24    4.2549922990746865E-24   -1.6365909867448569E-24  -2.1105097866731922E-24  -7.044933394500858E-24   -6.734162080961735E-25   5.9430170641992575E-27   -2.690810540622142E-26   -1.882019731188496E-26   -1.2862491414857946E-25
1.0E-6                    -3.762495837713628E-25   -2.7169445722924873E-24  -4.693053961700777E-24   5.314268016325247E-25    3.516684103909541E-23    1.4412851669421326E-23   1.8372112977952612E-24   -3.5104554254068624E-26  1.7215935309367576E-25   6.926232075787128E-26    2.062855408922522E-25
1.5E-6                    -7.505155905310356E-24   -5.9047463159766425E-24  -1.6361355061168982E-25  -1.5286095654180708E-24  -1.6747212715455532E-22  -2.712718604106943E-23   -2.5112918808945556E-24  -1.81237691050765E-25    1.4330240964168385E-25   -1.4605855246185265E-26  1.759159064147042E-24
2.0E-6                    3.492488127901174E-24    -1.9050876286654923E-23  -5.557787132590181E-23   2.1559323255616934E-23   -1.3953882288725013E-22  1.065985850898281E-22    -5.446792298275875E-24   -4.40938290464731E-25    -2.5282333138137213E-24  -2.190811973572328E-25   7.166009788297026E-25
2.4999999999999998E-6     5.156672847415765E-23    3.873045999404367E-23    1.429507911871875E-22    7.685818631398405E-23    3.9000544056248405E-22   5.717497755141235E-23    2.0540503658764122E-23   3.727800988381397E-24    -3.3478998174015474E-25  -7.095729997709741E-25   -5.601945810857681E-24
3.0E-6                    5.935750445374832E-23    1.0843946311188068E-22   7.537187474317357E-23    -1.0284253546939865E-22  -1.5076955908986049E-21  -8.366412937588186E-22   -1.185763744101835E-22   1.582639763916236E-23    1.263127829655789E-23    -2.4837813580724246E-24  -4.5531262405334066E-23
3.5E-6                    -7.67345842861125E-22    -1.1199223113392546E-21  -2.523097163089117E-21   -3.1503166849892667E-22  -6.162694999420373E-21   7.873647483924482E-22    -1.0920582704825091E-22  -7.320363719582729E-24   1.1737173810912834E-23   1.7450279777180344E-23   -1.711683332549658E-22
4.0E-6                    1.1661154513206567E-23   -2.219707005376419E-21   -6.720772146556528E-21   2.5792858766560232E-21   -5.057253761224118E-21   6.226478213640983E-21    8.729121004582639E-22    -1.4286187347208826E-22  -1.3863400297794693E-24  2.1033778467546004E-23   6.892598415994061E-22
4.5E-6                    6.127051057550083E-21    4.82716333810079E-21     2.4366136456416306E-22   7.32999612422114E-21     1.9114016711987723E-20   2.6117803501001246E-21   -1.8974777204686903E-21  -2.3335974134827523E-22  -6.718631979699694E-23   -8.964176726753519E-23   2.7603315044854984E-21
4.9999999999999996E-6     -4.596897928837181E-21   1.4316252372033075E-20   2.910620221924648E-20    -1.890892793386493E-20   -4.268625979722947E-21   -3.6588811337652753E-20  -1.340245343469189E-20   5.877941603176551E-22    -4.542601688632738E-22   -2.0009598301038946E-22  -3.704282495902755E-21
5.5E-6                    -4.1080904879044683E-20  -3.1036319345535924E-20  -3.711545166329967E-20   -5.903013821933297E-20   -3.669688975636784E-19   -2.3458610885877793E-20  8.0397191532707435E-22   2.780940492609901E-21    -3.7395245743446728E-22  1.1499954124731683E-22   -1.8283947534519198E-20
6.0E-6                    1.5314004623207596E-20   -1.4555765499187626E-19  -3.5783530103355813E-19  3.9921387416374923E-20   -6.95753806527155E-19    1.7497957282320384E-19   6.876950582293129E-20    9.945917342246451E-22    3.2781591422588717E-21   1.2668621210753322E-21   1.0037718652090038E-20
6.5E-6                    1.7066021597377683E-19   -1.1718532996486036E-19  -5.6905072396229795E-19  1.7284785477520942E-19   6.659577596806799E-19    -1.058654392314602E-19   -5.964031952560571E-20   -1.4675558315770878E-20  7.160542178790439E-21    1.4203154526530246E-21   7.739013167777667E-20
7.0E-6                    -1.1487685653845486E-19  1.3510386225473714E-19   -6.337826703191339E-20   -4.973289838772597E-19   6.348418137442635E-19    -1.9071198800279365E-18  -6.9320940106975235E-19  -2.7621859625448996E-20  -9.564568292134553E-21   -4.1706525812770815E-21  4.849251825697065E-20
7.499999999999999E-6      -9.657261481512654E-19   -6.899102640188159E-19   -9.673348246081512E-19   -2.504536936921615E-18   -1.2062144156216255E-17  -3.539653466483525E-18   -8.158187726514577E-19   2.0077462679984546E-20   -4.6711980727946116E-20  -1.1364535586886116E-20  4.251739512218546E-20
8.0E-6                    -5.272196852790285E-19   -4.910087011466405E-18   -1.0224168878797487E-17  -4.4977537844278265E-18  -3.388994578951902E-17   -3.476661337153833E-18   6.429688912342322E-19    1.1765932763169763E-19   -1.1933058588687172E-20  -5.815662448656833E-22   1.3583590416414828E-19
8.5E-6                    1.5701711602893927E-18   -1.076373059104374E-17   -3.26626116264146E-17    -8.544188276280506E-18   -4.0647336808451303E-17  -1.314526267751175E-17   -2.684576811041491E-18   4.7176704974638274E-20   1.6443449108834878E-19   3.415069905692827E-20    -5.669911139030624E-19
9.0E-6                    -2.411246308889661E-18   -1.3687892713431457E-17  -7.023274017741086E-17   -3.241097327970775E-17   -7.191467870198004E-17   -5.724936002545232E-17   -2.3375306916574166E-17  -5.789381638627036E-19   2.0207016474977343E-19   6.344121156709495E-20    7.168225239471331E-19
9.499999999999999E-6      -2.0497310002648715E-17  -3.252875988401437E-17   -1.567929330966258E-16   -1.1296662595700886E-16  -2.455760692242895E-16   -1.5906474940562555E-16  -5.4547139494870044E-17  -2.1145905809941225E-18  -3.261633700163864E-19   7.488766945428913E-21    1.4834960250455202E-17
9.999999999999999E-6      -4.1648083551998276E-17  -1.3771522119011833E-16  -3.9490247346676473E-16  -3.1513584785681913E-16  -5.12715834771112E-16    -3.709681183967502E-16   -7.325068659646284E-17   -3.932637349718599E-18   -8.80123200981448E-19    -2.957565365261788E-19   3.634139225169781E-17
1.05E-5                   -5.4464885364630076E-17  -4.275202649281063E-16   -9.910962146309653E-16   -7.914561948844621E-16   -8.106898526270451E-16   -8.863936297647306E-16   -1.5647602549021644E-16  -4.2927563958343245E-18  -9.147616494172123E-21   -6.828599673857909E-19   2.738545955402304E-17
1.1E-5                    -1.1954185327434989E-16  -9.842167777494787E-16   -2.4741273285445744E-15  -1.895098671580788E-15   -2.363885456333862E-15   -2.1684790265826836E-15  -5.961784535312979E-16   -1.1672050804893617E-17  1.5157143621737276E-18   6.369710339831802E-20    4.380861400038691E-17
1.15E-5                   -4.1966151751090923E-16  -1.9986127994176016E-15  -6.053208492649339E-15   -4.41702538571647E-15    -8.001107450538678E-15   -5.078122904424816E-15   -1.7528080465357616E-15  -6.752770062319487E-17   -6.771376591063676E-19   2.5747660173070135E-18   3.960401449970072E-16
1.2E-5                    -1.2307519404963059E-15  -4.31872824565536E-15    -1.3653637279560307E-14  -1.0166255972327827E-14  -1.871714959440112E-14   -1.1233421546742314E-14  -3.930506620480007E-15   -2.3231495752369523E-16  -7.273807671809693E-18   2.421585977592498E-18    1.3731690654147124E-15
1.2499999999999999E-5     -2.840876462055991E-15   -1.0363757368013083E-14  -2.8220998146614825E-14  -2.303456392402898E-14   -3.1992153929851113E-14  -2.3722201106192864E-14  -8.302215417512865E-15   -5.323190224847982E-16   -8.894679284596457E-18   -7.717772424953558E-18   2.846055617870891E-15
1.3E-5                    -5.6710435178922734E-15  -2.456105260500026E-14   -5.631567087390867E-14   -5.108209098047411E-14   -5.0393453107680394E-14  -4.7557243785516475E-14  -1.8919287160583617E-14  -1.1121388604481887E-15  -4.441538980234937E-18   -2.256876633531003E-17   5.5114079800559505E-15
1.35E-5                   -1.1407732201290534E-14  -5.3087628350418504E-14  -1.1362411059366051E-13  -1.1134585420879774E-13  -9.152545222465048E-14   -9.042615996691054E-14   -4.348558190304564E-14   -2.836742328873427E-15   -3.645372342388504E-17   -1.800485771370001E-17   1.3803129048290619E-14
1.4E-5                    -2.5212130510110775E-14  -1.0705998939441067E-13  -2.3402420530062567E-13  -2.3857253153149416E-13  -1.8737892317057594E-13  -1.691918562758887E-13   -9.290728482040099E-14   -7.841806519235347E-15   -1.790653143960826E-16   1.1454957977040524E-17   3.618466919188408E-14
1.45E-5                   -5.613091319432195E-14   -2.149085181234864E-13   -4.868608702611935E-13   -4.975859328800424E-13   -3.943858494255823E-13   -3.261362474396406E-13   -1.8930798230217328E-13  -1.9315097585081866E-14  -4.512303698029088E-16   -4.5769995663030255E-18  8.202140061195433E-14
1.4999999999999999E-5     -1.1500645110668383E-13  -4.364868885066966E-13   -9.990184544971785E-13   -1.0020933089854456E-12  -8.156654092900839E-13   -6.40933692550297E-13    -3.9100538877393395E-13  -4.215318331164239E-14   -8.19471218562248E-16    -1.9089663529601174E-16  1.6685644209372913E-13
1.55E-5                   -2.2041821698640748E-13  -8.612899710260778E-13   -1.9665261694496535E-12  -1.9429118114407695E-12  -1.5520495891496195E-12  -1.2239855247788394E-12  -8.112021534934866E-13   -8.842670738927048E-14   -1.5730779657368697E-15  -5.854936375182191E-16   3.351210409583979E-13
1.6E-5                    -4.2057696809130834E-13  -1.6129708930768948E-12  -3.6805860944392415E-12  -3.6114743439496184E-12  -2.5979101805893376E-12  -2.241450886225696E-12   -1.591983648591016E-12   -1.8695353866800275E-13  -4.004472068738835E-15   -1.0668103689193233E-15  6.79309599137963E-13
1.6499999999999998E-5     -8.093945547248532E-13   -2.9359848966853917E-12  -6.629406161531998E-12   -6.397188312174808E-12   -3.987009332416011E-12   -4.058212046295839E-12   -2.879435044696977E-12   -3.8780842943454287E-13  -1.0672026898900414E-14  -1.6969861947184876E-15  1.325250115076339E-12
1.7E-5                    -1.519205280993774E-12   -5.345666164133957E-12   -1.1559437202783057E-11  -1.0766308090761612E-11  -6.304884990160855E-12   -7.391781976828103E-12   -4.927284033401683E-12   -7.582233845227127E-13   -2.4813357609228968E-14  -3.5152291661493785E-15  2.405992184896311E-12
1.75E-5                   -2.7480799964891455E-12  -9.58014960767048E-12    -1.910645280291058E-11   -1.7196295123165574E-11  -1.0809554448816066E-11  -1.307585971105192E-11   -8.249118756170261E-12   -1.3873991558468848E-12  -5.068285348584201E-14   -9.056211123958944E-15   4.084735382872512E-12
1.8E-5                    -4.868735567521261E-12   -1.6107829035198403E-11  -2.8912908215939763E-11  -2.5887567400988984E-11  -1.8276881103844877E-11  -2.1220612058428148E-11  -1.336840272693346E-11   -2.413012284264288E-12   -9.848683786667682E-14   -2.17788520320232E-14    6.59824202378931E-12
1.85E-5                   -8.439608962962911E-12   -2.4496708569504522E-11  -3.912668339071563E-11   -3.6155998553454526E-11  -2.744315213465131E-11   -3.038398505447414E-11   -1.9978085536808133E-11  -4.026372717818366E-12   -1.9426026319112906E-13  -4.5527949995838815E-14  1.0167935633431627E-11
1.8999999999999998E-5     -1.3843523604193004E-11  -3.3407779834383826E-11  -4.7365811971080654E-11  -4.603162872276778E-11   -3.540649545728783E-11   -3.784058108476453E-11   -2.6403844353784198E-11  -6.3840851305218144E-12  -3.8663221740025037E-13  -8.765827309760978E-14   1.4721842518116615E-11
1.95E-5                   -2.0755767162886798E-11  -4.14029826446382E-11    -5.2518797901867183E-11  -5.2953393650924E-11     -4.035211343526308E-11   -4.114787486142055E-11   -3.057153508688087E-11   -9.45518256971841E-12    -7.406062059634657E-13   -1.6753773022074277E-13  1.9686534071769468E-11
1.9999999999999998E-5     -2.8167414004529646E-11  -4.762780185762734E-11   -5.510372037323309E-11   -5.5373502263128554E-11  -4.3204250271582964E-11  -3.969919983447601E-11   -3.186736454663274E-11   -1.2974510068680077E-11  -1.3240883548820464E-12  -3.2468391974922365E-13  2.4208157978160644E-11
2.05E-5                   -3.5149243420460324E-11  -5.145023534334731E-11   -5.53896757464645E-11    -5.351381517299128E-11   -4.5314360301141305E-11  -3.469821548470199E-11   -3.14358579952327E-11    -1.6602838975456857E-11  -2.2104394579635466E-12  -6.178759615851654E-13   2.771310525364931E-11
2.1E-5                    -4.1321132605574803E-11  -5.1639143673238835E-11  -5.179749392367774E-11   -4.8128103969531025E-11  -4.4969942178617084E-11  -2.7529256549668688E-11  -3.0043930199220015E-11  -2.011095977663353E-11   -3.502574702586766E-12   -1.1178769776389345E-12  3.015607778990601E-11
2.1499999999999997E-5     -4.614168119842244E-11   -4.654993898217955E-11   -4.2106991957069125E-11  -3.8823647440679567E-11  -3.8257251710427884E-11  -1.8204963144061787E-11  -2.6313953335976226E-11  -2.3322367162627075E-11  -5.3301520822353406E-12  -1.90822392397538E-12    3.1504300510809337E-11
2.2E-5                    -4.8034448251902065E-11  -3.5482945927121256E-11  -2.5836581574764864E-11  -2.4296553783178123E-11  -2.3942329032691497E-11  -5.523170977120276E-12   -1.8150186028055786E-11  -2.5892708299107246E-11  -7.756064009473986E-12   -3.0935106736740176E-12  3.1012547037116494E-11
2.2499999999999998E-5     -4.512355075836692E-11   -1.9507240822545492E-11  -4.052914298147186E-12   -3.9866923031467655E-12  -5.263715635312195E-12   1.1344707762432428E-11   -5.5004157112699E-12     -2.72857858161385E-11    -1.062294869891778E-11   -4.780515603991479E-12   2.7359445479739894E-11
2.3E-5                    -3.706481531370381E-11   -3.026862683527794E-13   2.3322738542329928E-11   2.161741400912787E-11    1.481076396590822E-11    3.1853142967856405E-11   9.834115674203102E-12    -2.700253714854869E-11   -1.3502832108634035E-11  -6.999412166837118E-12   1.9716735326430337E-11
2.35E-5                   -2.525045172770384E-11   2.21067402057109E-11     5.859688628114307E-11    5.267363697804209E-11    3.821793153979771E-11    5.5021938670493407E-11   2.7338095036735186E-11   -2.4675991669798387E-11  -1.5889553557858276E-11  -9.598184643051798E-12   8.417851250793254E-12
2.4E-5                    -1.0510035152593163E-11  5.024649960280459E-11    1.0394909680588672E-10   9.099427512402459E-11    6.891888324881322E-11    8.109177589212273E-11    4.912846541298053E-11    -1.987068057935582E-11   -1.7524828496436112E-11  -1.2208840669616939E-11  -5.82927282793602E-12
2.45E-5                   8.785263965342573E-12    8.734611422284741E-11    1.588806629041995E-10    1.3847245753873777E-10   1.063871766303836E-10    1.1156949936011926E-10   7.726163218879729E-11    -1.1977105288869693E-11  -1.8508076128538374E-11  -1.4354583052846482E-11  -2.339002093043681E-11
2.4999999999999998E-5     3.5434087081574447E-11   1.3431565296952062E-10   2.2067691801402937E-10   1.948342988274831E-10    1.4568445172741265E-10   1.4745441364748878E-10   1.1082066674385328E-10   -3.999285338990814E-13   -1.894658192066884E-11   -1.5643525378657024E-11  -4.607587153560109E-11
2.55E-5                   7.050802375648797E-11    1.8879338642625163E-10   2.866487340285004E-10    2.5765262380021474E-10   1.8483368298744498E-10   1.8781037790726576E-10   1.467792138378043E-10    1.5430938360791236E-11   -1.837797351165193E-11   -1.5888659489531617E-11  -7.590319710140294E-11
2.6E-5                    1.1268790722414891E-10   2.475504395030313E-10    3.5519630034563476E-10   3.2436930065650556E-10   2.2856833851255415E-10   2.301180248330801E-10    1.8295221118683277E-10   3.6419983722690083E-11   -1.559373613407558E-11   -1.5018821600610626E-11  -1.1335716214015181E-10
2.65E-5                   1.6048583677085466E-10   3.0942464227303074E-10   4.252797458947922E-10    3.9343988559529624E-10   2.8190760780934565E-10   2.715416361941083E-10    2.1884172046962014E-10   6.370314266960792E-11    -9.27643144533278E-12    -1.2816030806679342E-11  -1.5660171290977184E-10
2.7E-5                    2.1404740463873667E-10   3.7483405760626274E-10   4.957271069942265E-10    4.632662944240713E-10    3.416125922446114E-10    3.0983448630839405E-10   2.540511744469912E-10    9.753719520594165E-11    9.549026825735664E-13    -8.717258656011119E-12   -2.0225098456691056E-10
2.7499999999999998E-5     2.739722483481232E-10    4.421770367751197E-10    5.64793794763615E-10     5.307782507601763E-10    3.970653119619391E-10    3.4366212880609905E-10   2.8728878733637786E-10   1.3641441873239104E-10   1.4137684651919815E-11   -1.947857581025571E-12   -2.4716687154167927E-10
2.8E-5                    3.3861452361994327E-10   5.058566309264086E-10    6.293946342185402E-10    5.917331305124392E-10    4.395350757253262E-10    3.72248216698386E-10     3.1702028526608393E-10   1.7796310486563216E-10   2.8831816235261447E-11   8.018268000573085E-12    -2.898013658950724E-10
2.8499999999999998E-5     4.0323585261222683E-10   5.587781408356349E-10    6.842078988604032E-10    6.41974883252479E-10     4.682049860899957E-10    3.940761093161044E-10    3.418787134797163E-10    2.207872132979822E-10    4.459056269811079E-11    2.1059379662777257E-11   -3.2983009785234726E-10
2.9E-5                    4.6219429481996837E-10   5.962349017623326E-10    7.216554932457642E-10    6.773974448940427E-10    4.86657794596407E-10     4.055295320783713E-10    3.5986301456197124E-10   2.6470440208614985E-10   6.255136519694709E-11    3.6500217286650594E-11   -3.665647902452001E-10
2.95E-5                   5.119366770583374E-10    6.164748209791603E-10    7.331274345816723E-10    6.925063409160694E-10    4.957429057497284E-10    4.0118776032313644E-10   3.6775491160123395E-10   3.0892896370597605E-10   8.443163259258103E-11    5.365717478448596E-11    -3.979635716190278E-10
2.9999999999999997E-5     5.516082770497555E-10    6.178225080615944E-10    7.10685476284764E-10     6.800033179128343E-10    4.912282295661416E-10    3.7593820303399767E-10   3.617715378474573E-10    3.507547851592037E-10    1.1085335213646788E-10   7.226232698070871E-11    -4.210658755981705E-10
3.05E-5                   5.805217568581586E-10    5.960988606309258E-10    6.481990718774357E-10    6.326465386739993E-10    4.666335450436896E-10    3.269386309349818E-10    3.384441764627757E-10    3.8655141523770666E-10   1.4057920321229953E-10   9.227984015010308E-11    -4.3272276513050805E-10
3.1E-5                    5.95048533589457E-10     5.446399611545562E-10    5.413723554993146E-10    5.45226751423758E-10     4.160051146507481E-10    2.536413289044033E-10    2.9464776937974896E-10   4.135410416670835E-10    1.7122937208680683E-10   1.1331709880965967E-10   -4.293701417667382E-10
3.15E-5                   5.881402246228138E-10    4.5600712295475843E-10   3.8675040991315953E-10   4.140747997407793E-10    3.343368018299305E-10    1.561495897997661E-10    2.272511475240031E-10    4.299594406240314E-10    2.006086466462065E-10    1.343148578453822E-10    -4.0630181216260817E-10
3.2E-5                    5.518691028921833E-10    3.238062149433773E-10    1.8048053961114225E-10   2.350590975649664E-10    2.1786671643873526E-10   3.3722562026603285E-11   1.3330205324584228E-10   4.3361469658774133E-10   2.2739141241557103E-10   1.5384341523508767E-10   -3.578662950478715E-10
3.25E-5                   4.802917909925115E-10    1.4394234202857288E-10   -8.182362011547836E-11   3.360205417303731E-12    6.557211686919275E-11    -1.149801708384073E-10   1.082150877039403E-11    4.205610239361126E-10    2.5068588010471035E-10   1.7055696429570221E-10   -2.7891421789404283E-10
3.2999999999999996E-5     3.700231089412277E-10    -8.505435428397938E-11   -4.033541230244687E-10   -2.840587426261362E-10   -1.2022192141947556E-10  -2.9013412558131713E-10  -1.4026964230487335E-10  3.849008038524242E-10    2.6901094558396656E-10   1.8318148679661427E-10   -1.662145891648503E-10
3.35E-5                   2.1869600831316854E-10   -3.626633926088215E-10   -7.836756356840228E-10   -6.258661766819185E-10   -3.358252649676117E-10   -4.895190347481558E-10   -3.177066487380341E-10   3.1977419880420694E-10   2.796692031613122E-10    1.9010483825311415E-10   -1.8628690901812684E-11
3.4E-5                    2.3579372263504288E-11   -6.870559287105448E-10   -1.2177735009521452E-9   -1.0160679467598295E-9   -5.787564427784735E-10   -7.093218818980511E-10   -5.175766669739181E-10   2.1929447566026335E-10   2.7911212606966627E-10   1.8927773067683962E-10   1.6355396476493944E-10
3.45E-5                   -2.1800716414206806E-10  -1.0548507218478074E-9   -1.6970218153955484E-9   -1.4455838743435611E-9   -8.476712122384013E-10   -9.456359418671952E-10   -7.358767626896509E-10   8.03944660128364E-11     2.6397995473744275E-10   1.7879180344849895E-10   3.7892473376312936E-10
3.5E-5                    -5.069799716902735E-10   -1.4602303478206092E-9   -2.209996809695256E-9    -1.903806478491484E-9    -1.1397480395845614E-9   -1.1940700327389492E-9   -9.690980098214772E-10   -9.695550001138541E-11   2.3191801185259655E-10   1.575572004847277E-10    6.248311195135867E-10
3.5499999999999996E-5     -8.411622966442925E-10   -1.8943155744486626E-9   -2.7414126861461615E-9   -2.378912537803184E-9    -1.448876716225075E-9    -1.4474883454912474E-9   -1.212523040229282E-9    -3.111721340912995E-10   1.8162855379481403E-10   1.2521038705777608E-10   8.976238944778615E-10
3.6E-5                    -1.2152537666968496E-9   -2.344806303884947E-9    -3.2704141263336163E-9   -2.856722731353737E-9    -1.7664634932492971E-9   -1.6947738280775684E-9   -1.4579348155520301E-9   -5.60219670871575E-10    1.1239972016518193E-10   8.119452043393365E-11    1.1929763557418366E-9
3.65E-5                   -1.6213954711160806E-9   -2.7953031774002004E-9   -3.770909628454014E-9    -3.3188038230625905E-9   -2.082589471165381E-9    -1.9222949864305123E-9   -1.6936802098285505E-9   -8.412418892853289E-10   2.3597558092525787E-11   2.3931337035473154E-11   1.5049560633690032E-9
3.7E-5                    -2.0490091106815994E-9   -3.2245975662980846E-9   -4.2144630246886605E-9   -3.741386920091658E-9    -2.3848281008485282E-9   -2.1162262765049988E-9   -1.9069621706181307E-9   -1.1495180933650745E-9   -8.568620210602873E-11   -4.895668500382496E-11   1.8240453629189503E-9
3.75E-5                   -2.483682931396899E-9    -3.607125961787591E-9    -4.5732017195464446E-9   -4.096434664583535E-9    -2.656127716183518E-9    -2.263174730791565E-9    -2.085161238929714E-9    -1.4779201543122518E-9   -2.1671684325254395E-10  -1.3933746393913521E-10  2.1363064784692E-9
3.7999999999999995E-5     -2.9064356309728594E-9   -3.91511875638421E-9     -4.819984864459319E-9    -4.35442885239538E-9     -2.8755266146729665E-9   -2.3493100360243704E-9   -2.2147854415117213E-9   -1.816789343851157E-9    -3.7063407612358925E-10  -2.47138856787738E-10    2.4248306854117228E-9
3.85E-5                   -3.294702694919315E-9    -4.121315249196529E-9    -4.925980802816861E-9    -4.487004550707079E-9    -3.0220413448253877E-9   -2.3600793392868114E-9   -2.2805394838114194E-9   -2.153814500172226E-9    -5.47361222208487E-10    -3.6994639942300243E-10  2.6717718749518986E-9
3.9E-5                    -3.6245295844714996E-9   -4.200334855854563E-9    -4.8587927957142226E-9   -4.468020435684801E-9    -3.077657973897006E-9    -2.2813646305298905E-9   -2.2668278996715326E-9   -2.474048767359442E-9    -7.445324154882166E-10   -5.038803559359151E-10   2.8589622085230247E-9
3.95E-5                   -3.871960355784069E-9    -4.127945503965252E-9    -4.584238501926818E-9    -4.273218921554529E-9    -3.026535789683595E-9    -2.101125509278934E-9    -2.160288628096665E-9    -2.760119015782227E-9    -9.571879629435072E-10   -6.447304704212822E-10   2.967536325473744E-9
3.9999999999999996E-5     -4.01266328765334E-9     -3.879756478244966E-9    -4.071549200815788E-9    -3.8797034068480145E-9   -2.8525686371441705E-9   -1.8106170126757554E-9   -1.9507584639338247E-9   -2.992463240189789E-9    -1.1782070871877862E-9   -7.880496366741452E-10   2.9781247749707856E-9
4.0499999999999995E-5     -4.021243909406703E-9    -3.4319761204688688E-9   -3.2983227637383263E-9   -3.266584263556116E-9    -2.5392202269441126E-9   -1.4051534822655495E-9   -1.630862999876778E-9    -3.1499450908025283E-9   -1.3987099517524293E-9   -9.281751908287957E-10   2.8717410448531587E-9
4.1E-5                    -3.872111827468456E-9    -2.7650777156283102E-9   -2.251981853567752E-9    -2.4174177706407646E-9   -2.072371944252519E-9    -8.844446470441288E-10   -1.1962264214215602E-9   -3.2111659719007293E-9   -1.6079008490400874E-9   -1.0575544627857203E-9   2.6305941176123773E-9
4.15E-5                   -3.541653249018783E-9    -1.867982128452626E-9    -9.286710418795687E-10   -1.3236551897702159E-9   -1.4438924104157795E-9   -2.5235136720557096E-10  -6.464974267626167E-10   -3.1556101770380734E-9   -1.792701112776547E-9    -1.1674123406311346E-9   2.2391160286509548E-9
4.2E-5                    -3.0101053933583434E-9   -7.396025444959984E-10   6.665050577127531E-10    1.2659065131528596E-11   -6.539556648434681E-10   4.835451006864005E-10    1.4348826616324056E-11   -2.9636039862996954E-9   -1.9379743144111628E-9   -1.2490570144426272E-9   1.6858842210045806E-9
4.2499999999999996E-5     -2.2628099596662692E-9   6.123407625458198E-10    2.516144223838081E-9     1.577945799411398E-9     2.8837643748391764E-10   1.3117465670612502E-9    7.786008922142501E-10    -2.6159461635942914E-9   -2.0277233114865537E-9   -1.2943555259524154E-9   9.656429643096283E-10
4.2999999999999995E-5     -1.2919082350618504E-9   2.1722459365658368E-9    4.586872770694697E-9     3.347195837708397E-9     1.3661751020699467E-9    2.2158696052168606E-9    1.6346184553190464E-9    -2.0951593794275416E-9   -2.0468391204914364E-9   -1.295158056639734E-9    8.003694545595289E-11
4.35E-5                   -9.85744131776409E-11    3.9152580028276484E-9    6.8290914134958765E-9    5.2839330482983295E-9    2.556484651568642E-9     3.1736569411913245E-9    2.565178853495241E-9     -1.3885413501884407E-9   -1.982558564172929E-9    -1.2428445055999133E-9   -9.626155538260912E-10
4.4E-5                    1.305632380866688E-9     5.8049135423634E-9       9.180316802179792E-9     7.339911579083194E-9     3.831417050449189E-9     4.156691064243164E-9     3.545921369139915E-9     -4.909782767855538E-10   -1.8250248683448703E-9   -1.1287865389352451E-9   -2.1470076327720626E-9
4.45E-5                   2.8990274545704253E-9    7.792095879992573E-9     1.1568823325357482E-8    9.45522535780232E-9      5.157792330548728E-9     5.131021841569033E-9     4.545542359249042E-9     5.94096372800597E-10     -1.5669546300709634E-9   -9.45225578907303E-10    -3.4498480602569166E-9
4.4999999999999996E-5     4.650469041312106E-9     9.815573407873684E-9     1.3914606765456275E-8    1.155925828383371E-8     6.496602913809308E-9     6.058751322337784E-9     5.5275801365955325E-9    1.8550180414045945E-9    -1.2029233853377865E-9   -6.859061638497668E-10   -4.839500807419614E-9
4.5499999999999995E-5     6.518924942363021E-9     1.180308082688594E-8     1.6127701971432882E-8    1.3572433641694194E-8    7.803666941353657E-9     6.900389586664995E-9     6.452488275605243E-9     3.271862409850002E-9     -7.289186648871287E-10   -3.467137990410344E-10   -6.276685301141272E-9
4.6E-5                    8.452073117952412E-9     1.367283952303951E-8     1.8106562308788214E-8    1.540836130505235E-8     9.03081747586818E-9      7.617101621062352E-9     7.279033883452779E-9     4.8154300013406565E-9    -1.425796350135433E-10   7.324140635936949E-11    -7.715135990196893E-9
4.65E-5                   1.0385563476003788E-8    1.5336157945014383E-8    1.973967945998777E-8     1.6975699728908647E-8    1.0126410752316324E-8    8.171838803054378E-9     7.964960863923702E-9     6.446094955344315E-9     5.558611176748807E-10    5.705438987165334E-10    -9.101536013545389E-9
4.7E-5                    1.2244438745276013E-8    1.6700860694105774E-8    2.0911528607969797E-8    1.8179718277784724E-8    1.1036026424463399E-8    8.529561496305793E-9     8.467694862011603E-9     8.113726828918126E-9     1.362201241630025E-9     1.1372093100816143E-9    -1.0375614033575783E-8
4.7499999999999996E-5     1.3946712201555286E-8    1.7674530179998204E-8    2.1510707924239143E-8    1.8925077631720825E-8    1.1705268588251042E-8    8.657874282098214E-9     8.746106696583925E-9     9.758818678196634E-9     2.266714472832541E-9     1.761136270201883E-9     -1.147164148936212E-8
4.8E-5                    1.540740523950918E-8     1.8167312083876882E-8    2.143675357896065E-8     1.9121291743402582E-8    1.2084077665105153E-8    8.52875300978404E-9      8.763450245899326E-9     1.13138294187128E-8      3.2525854684267063E-9    2.426363433493484E-9     -1.2321422105733606E-8
4.85E-5                   1.6541013233171696E-8    1.8095191066035673E-8    2.0604042285655863E-8    1.868966756902871E-8     1.2129413796759466E-8    8.120702534411628E-9     8.490313622417864E-9     1.2704242929223261E-8    4.294692750870102E-9     3.1127511813936615E-9    -1.2857814107383843E-8