% Model:              Untitled.mph
% Version:            COMSOL 6.0.0.405
% Date:               Jul 16 2025, 09:52
% Dimension:          1
% Nodes:              401
% Expressions:        11
% Description:        Point graph
% Time (s)                Displacement field, Y component Displacement field, Y component Displacement field, Y component Displacement field, Y component Displacement field, Y component Displacement field, Y component Displacement field, Y component Displacement field, Y component Displacement field, Y component Displacement field, Y component Displacement field, Y component
0                         -7.048564017798672E-33   -3.2726739472387053E-32  -1.0997244299859949E-31  -4.674517076362629E-31   -1.4034197044616254E-31  -5.273205317326457E-32   -2.785517151499836E-32   -1.08234724069496E-34    7.809332954101394E-35    -1.481460436475177E-32   3.652645817153652E-32
5.0E-7                    -3.1782031878132125E-24  7.823557714146686E-23    2.1390732262245573E-23   4.164723476132155E-23    1.0889211326464914E-23   2.405200475633604E-24    8.120800011507759E-24    1.352223342137429E-26    -4.2260048986764425E-26  -6.3399757906431015E-25  -1.4325170960493028E-23
1.0E-6                    1.6604567559435546E-23   2.417183096583634E-23    9.666262570090127E-23    -4.070867605874564E-23   -6.476803666029929E-23   -6.896646198993924E-23   -5.822911314363503E-23   1.494896385058449E-26    4.003410771542346E-25    2.3923659273994903E-23   -1.7504737296215898E-22
1.5E-6                    -3.5980176656245606E-23  3.0928491344092186E-22   -5.842849178127268E-23   1.5174601157243254E-21   1.0010608047719233E-21   5.023406494365847E-22    3.152138107570467E-22    -2.8637629941169134E-25  -2.2026410930060764E-24  -7.343198433397382E-23   -1.6941472787914603E-24
2.0E-6                    -3.2175208711401937E-22  -8.74001498221441E-21    -2.874839086542013E-21   -8.187793414235442E-21   -4.039662228365904E-21   -1.0629210301255425E-21  -6.1235374662644675E-22  1.4338128120090537E-24   2.1768937033783698E-24   -1.5583407571844476E-22  1.0584028295656322E-21
2.4999999999999998E-6     -1.5366468631287582E-22  1.4724616216257304E-20   6.141804755908993E-21    1.245106701451279E-20    4.259244829180164E-21    -4.661267526220252E-23   -4.942691265272906E-22   -3.1995804105359766E-24  2.019858314840218E-23    9.870406529087311E-22    5.2227422751477896E-21
3.0E-6                    4.8006263060959E-21      7.239810433179974E-20    1.3224181210803873E-20   3.63872227318182E-20     2.0484255246747582E-20   5.486155961966509E-21    3.999016393069613E-21    -2.6212098505875736E-24  -4.7031495583277573E-23  5.345663765498969E-22    -1.527308589868025E-21
3.5E-6                    5.036603566554796E-21    -1.569088989198296E-19   -3.7194931380319714E-20  -1.167584453884325E-19   -5.3223818545311763E-20  -5.849895510974607E-21   -1.6733111728505592E-21  2.6244619972678684E-23   -1.0823720924644703E-22  -1.0030057279229803E-20  -6.011856543610586E-20
4.0E-6                    -2.888154535767985E-20   -2.441488928555226E-19   -1.8233297885844403E-20  -1.3470419739841116E-20  -3.389954736469335E-20   -1.9427835251455627E-20  -1.9182220724156222E-20  -1.0765202158525909E-23  1.7686893372060479E-22   4.658160889006285E-21    -3.7126442777678953E-20
4.5E-6                    -5.1657130657658075E-20  8.05304814056035E-19     3.363326905933624E-20    3.2945588051201273E-19   1.7742036693740028E-19   4.079477483083843E-20    2.33815433131361E-21     -1.5366044503236022E-22  4.088161333648852E-22    5.743545447791835E-20    3.106783438912974E-19
4.9999999999999996E-6     7.500684747099587E-20    5.585447072475753E-19    3.7332113535134655E-20   5.178098753518419E-19    2.9852865001236075E-19   2.0074600351557875E-19   1.535424491022111E-19    1.0098481170399658E-22   -2.322514521242577E-22   -6.560368493725622E-20   2.840246307083943E-19
5.5E-6                    2.6784620833793373E-19   -2.417978661181588E-18   5.835102907002985E-19    2.431863203606425E-19    3.3866152514581067E-20   -4.169586536695858E-19   9.29884730774099E-22     6.779960294461925E-22    -4.086358376331937E-22   -2.9476964677953373E-19  -1.0672858932477204E-18
6.0E-6                    6.500494107520259E-20    -3.22981715270134E-19    1.9120607004138434E-19   -3.119149911560512E-18   -1.6256198502591403E-18  -1.0876598836341864E-18  -9.133708991155667E-19   -4.42606203469806E-22    -2.3739921692912173E-21  3.0789150763294746E-19   -1.5088766288067889E-18
6.5E-6                    -7.261949919782779E-19   7.581495638014164E-18    -3.4011818908303147E-18  1.9748161026294745E-18   -3.301253742315417E-19   4.533297256400044E-18    2.2041943109624407E-19   -2.5123685004856673E-21  -1.0796140580247668E-20  1.204177926382164E-18    1.4596684789478768E-18
7.0E-6                    -1.3510798343961358E-18  5.96342416931682E-18     -9.598954040085528E-19   2.9227935596133236E-17   1.138598124953563E-17    6.957764408497561E-18    4.7776555115542205E-18   4.753656842869662E-23    6.0869125302237806E-21   -1.1832100229182146E-18  2.6180671564797764E-18
7.499999999999999E-6      -1.644380286526133E-19   -7.229478677138188E-19   2.0798176724953518E-17   3.637249963605313E-17    1.7501912051288018E-17   -2.5618784399155362E-17  5.603784987341476E-19    5.474450928266816E-21    6.531105490659405E-20    -5.315153707809828E-18   -4.030734714074011E-18
8.0E-6                    4.7906224391436524E-18   1.1984340172270151E-17   3.000306946643102E-17    2.409907371875824E-17    6.615817876638883E-18    -3.4055385740703515E-17  -1.7294457591583514E-17  1.4836514221017657E-21   -7.199389025191727E-21   -5.012892950702842E-19   -1.2261021596651279E-17
8.5E-6                    1.0283533318696755E-17   5.2965877239027264E-17   -3.31935826039413E-17    1.6815289286118332E-16   4.279887426712213E-17    1.3820400263982293E-16   -3.811731617415868E-18   -1.9579065795244245E-20  -3.615377361159279E-19   9.698880631945594E-18    -1.5454080110080777E-17
9.0E-6                    -7.591169885377534E-19   1.8053315778176193E-16   -4.499194527801697E-17   6.083492259501436E-16    2.0105907655496162E-16   2.8775057193468713E-16   7.990330356626919E-17    -4.057628102780547E-20   -4.532641626543144E-19   -3.4127462792011117E-18  -2.5120748342834876E-17
9.499999999999999E-6      -3.534388150307352E-17   5.026611576114431E-16    3.4099865390276855E-16   1.380922316636137E-15    4.995869447333708E-16    -2.3371107477594226E-16  1.2155580969097295E-16   3.6239272832281935E-22   6.52871766711114E-19     -4.125723759249999E-17   -6.016462485633597E-17
9.999999999999999E-6      -3.203908546736515E-17   9.867576185396444E-16    1.0143525619713383E-15   2.8957907181446863E-15   1.0797416398347788E-15   -9.384050399209345E-16   -4.725312059861886E-17   6.812203803652672E-20    1.8988480517595247E-18   -6.482919180082207E-17   -1.4193064920793812E-16
1.05E-5                   8.745939142739742E-17    1.9167316441508334E-15   1.189255244755754E-15    6.519751985103544E-15    2.5411356142388937E-15   7.549621074679112E-16    -1.5929160358904985E-16  -1.9912751334593808E-19  -1.7053416873629977E-18  -1.1949857471728116E-16  -3.943631352231065E-16
1.1E-5                    2.1459495630331262E-16   5.198684908366793E-15    1.725357109874933E-15    1.5088472833141384E-14   6.432266603532104E-15    5.323068483825658E-15    6.00008209240928E-16     -9.540610583125921E-19   -1.2971140249266223E-17  -3.7541937594213407E-16  -1.2143179139495977E-15
1.15E-5                   1.1883589650659217E-16   1.3707787208292787E-14   7.136846056883187E-15    3.134346182043532E-14    1.4943795095604712E-14   6.539780164985777E-15    2.483227896526114E-15    -1.3622788142097207E-18  -1.8886461002228108E-17  -9.817399225767868E-16   -3.2416956505890904E-15
1.2E-5                    1.6075264658809246E-17   2.7892447948159958E-14   2.1037812067598116E-14   5.630789878879843E-14    3.023949125917698E-14    8.165501731241602E-16    4.460958441247795E-15    -1.5656484039586068E-18  -3.1224269415527008E-18  -2.3492787462647862E-15  -7.445173262455423E-15
1.2499999999999999E-5     7.641991284952953E-16    4.8280308687285E-14      4.168957498821696E-14    1.0100756114269038E-13   6.228473957600692E-14    5.158874966137784E-15    6.7574768631517495E-15   -6.057451200984562E-18   -8.580572455842273E-18   -6.1637569238746524E-15  -1.6568971939638447E-14
1.3E-5                    2.9782375499218315E-15   8.921263202554747E-14    7.738780824846002E-14    1.978094635265539E-13    1.4361004415858517E-13   4.786209969034648E-14    1.448776428138301E-14    -2.1642400903077692E-17  -1.5474655595328674E-16  -1.6107658370656895E-14  -3.773890631046752E-14
1.35E-5                   6.493199696765598E-15    1.8302483105198947E-13   1.7329731065742834E-13   3.64001788638847E-13     3.1657293236109406E-13   1.2978050853313733E-13   3.709150992809784E-14    -5.400261182268685E-17   -5.026286116664231E-16   -3.832093244159869E-14   -8.474307526691534E-14
1.4E-5                    1.2031682847656593E-14   3.543744999849369E-13    4.0273932913461284E-13   5.853047518060767E-13    6.07284420917118E-13     2.31413736484958E-13     8.749540499294061E-14    -1.190892787996644E-16   -9.879606164082935E-16   -8.535445525358022E-14   -1.8395787666874875E-13
1.45E-5                   2.4317828297749974E-14   6.077422123257458E-13    8.369504931321767E-13    9.85581413239026E-13     1.1095617314594124E-12   3.9998857626992856E-13   1.8785230773221842E-13   -2.7062513775113166E-16  -1.8150290751701076E-15  -1.8772594825882561E-13  -3.9223614702012653E-13
1.4999999999999999E-5     5.453197627770598E-14    9.862656961639561E-13    1.618960392981996E-12    2.0011540242248984E-12   2.1431742902503704E-12   8.026767377976632E-13    3.7272406549673664E-13   -6.378971619122299E-16   -4.097282217629237E-15   -4.107645700267024E-13   -8.232394343624559E-13
1.55E-5                   1.2121750879367327E-13   1.609725214160921E-12    3.1546649533223986E-12   4.112985161866627E-12    4.121352258081441E-12    1.6734860483485482E-12   6.958672520442791E-13    -1.5063498189116036E-15  -9.973843068885683E-15   -8.687044695489404E-13   -1.6647085932127243E-12
1.6E-5                    2.5008588366878495E-13   2.5181172383378073E-12   6.140746019730912E-12    7.574657724607831E-12    7.1633237533201806E-12   3.3022278953335827E-12   1.2895229487389072E-12   -3.4861025771298806E-15  -2.231960438217348E-14   -1.736713772422373E-12   -3.1812545611187714E-12
1.6499999999999998E-5     4.772071153781502E-13    3.520271972137721E-12    1.1274020060418357E-11   1.3263521007018335E-11   1.1406744633708737E-11   6.139645495736487E-12    2.4474566480173077E-12   -7.764006411583288E-15   -4.584799581809903E-14   -3.2812511565450042E-12  -5.715325359940703E-12
1.7E-5                    8.654051447360836E-13    4.689642654866849E-12    1.9051660068609562E-11   2.3710981796554356E-11   1.8213374164471818E-11   1.081465815578425E-11    4.563649852381673E-12    -1.6510083756752816E-14  -9.144277743747517E-14   -5.9106570303669636E-12  -9.664027098911025E-12
1.75E-5                   1.5368952142999534E-12   7.490285002071399E-12    2.9909369468380114E-11   4.1218513719038485E-11   3.007029577510731E-11    1.8048752801859614E-11   7.970859945450565E-12    -3.388597293241574E-14   -1.825207720464748E-13   -1.0148904482282547E-11  -1.5324838622512716E-11
1.8E-5                    2.7090209891717428E-12   1.4853130108226198E-11   4.3910345874197835E-11   6.361258675941497E-11    4.7586005603705596E-11   2.862195326367487E-11    1.3121954765797645E-11   -6.84371447587957E-14    -3.5846695046018227E-13  -1.637029337274976E-11   -2.2510621061383343E-11
1.85E-5                   4.716296539575457E-12    2.8539338254433287E-11   5.952917459995901E-11    8.395746349502863E-11    6.687410342868794E-11    4.279621955285988E-11    2.106960322446613E-11    -1.3703702240970394E-13  -6.727351176338961E-13   -2.433332150198787E-11   -3.0111082845820234E-11
1.8999999999999998E-5     7.990593852359019E-12    4.5642596672470014E-11   7.329539418698131E-11    9.687405853876283E-11    8.201933339996193E-11    5.869458984218258E-11    3.304078512922753E-11    -2.6890094954013634E-13  -1.1938385082543332E-12  -3.294347326647119E-11   -3.617184319779202E-11
1.95E-5                   1.2916013502998982E-11   5.918185742663422E-11    8.203732976759449E-11    1.0333642653846077E-10   9.034571859568824E-11    7.171206911018921E-11    4.856183779395329E-11    -5.081167579623379E-13   -2.0170400760963395E-12  -4.067142795697474E-11   -3.8904007989826567E-11
1.9999999999999998E-5     1.9481724201555517E-11   6.418163127556811E-11    8.533645024140843E-11    1.0618014641578395E-10   9.293993906292468E-11    7.763698489877269E-11    6.439049140694499E-11    -9.17355198464469E-13    -3.262799023102045E-12   -4.63191287132025E-11    -3.7966075584304024E-11
2.05E-5                   2.689992504152344E-11    6.269422090008998E-11    8.410108766738776E-11    1.0280201121836826E-10   8.971122183612017E-11    7.661252321171773E-11    7.669196596208352E-11    -1.5883105584846889E-12  -5.008493757456432E-12   -4.91875197333322E-11    -3.4513215869971086E-11
2.1E-5                    3.3650118390995323E-11   6.043359814544347E-11    7.672267275297806E-11    8.681451595447926E-11    7.735877303917931E-11    7.147441293314056E-11    8.412403004652703E-11    -2.6518144853636844E-12  -7.1479247019261555E-12  -4.835457224291177E-11   -2.9578798886306E-11
2.1499999999999997E-5     3.818749737632939E-11    5.819256438334194E-11    5.893275823892433E-11    5.6302818125463066E-11   5.396444152712742E-11    6.19643337795795E-11     8.69364489051353E-11     -4.2517875356267305E-12  -9.292763542043616E-12   -4.2211056280433806E-11  -2.260423869516532E-11
2.2E-5                    3.975877569739171E-11    4.938031103174822E-11    2.827819598044062E-11    1.5676518673410885E-11   2.238267401109824E-11    4.47670781992766E-11     8.311022562192685E-11    -6.439091370080397E-12   -1.0874290450536104E-11  -2.941651271425722E-11   -1.2097601489258366E-11
2.2499999999999998E-5     3.8394297124187916E-11   2.7462252162297802E-11   -1.326913285689858E-11   -3.143063648680756E-11   -1.3879306712285981E-11  2.05504359739946E-11     6.84744125740193E-11     -9.00606279177284E-12    -1.1448480062725962E-11  -1.0386942362456489E-11  2.4851759576983977E-12
2.3E-5                    3.399582761885268E-11    -6.75631980829119E-12    -6.223608773205705E-11   -8.731996932940654E-11   -5.6168400212478826E-11  -4.990371746364297E-12   4.194958159504147E-11    -1.1404953541235494E-11  -1.0966237856140322E-11  1.291311225277611E-11    2.0490070822363552E-11
2.35E-5                   2.5624097056848127E-11   -4.769217383152094E-11   -1.176772817338067E-10   -1.5727344986387296E-10  -1.0936744723644715E-10  -3.1315111031071576E-11  7.363143799154856E-12    -1.2930032527099048E-11  -9.727854710992213E-12   3.9196885470506636E-11   4.192534781583344E-11
2.4E-5                    1.1948103338745253E-11   -9.280366809868291E-11   -1.8150974901170213E-10  -2.4424327002998133E-10  -1.765683857791159E-10   -6.907632716423285E-11   -3.262890995543291E-11   -1.3132413013492613E-11  -8.014278721185588E-12   6.946531789670289E-11    6.848322795881814E-11
2.45E-5                   -7.631326844598605E-12   -1.4436866649073367E-10  -2.5604354736029143E-10  -3.4697509426453277E-10  -2.5725770619208923E-10  -1.299558482013909E-10   -8.155153984549313E-11   -1.2087832813798844E-11  -5.728088611940493E-12   1.0577631891927765E-10   1.0180459233258035E-10
2.4999999999999998E-5     -3.256191097758435E-11   -2.0387249900419757E-10  -3.415509487047399E-10   -4.6076693419006713E-10  -3.491087261448332E-10   -2.1357034061287547E-10  -1.443511264779718E-10   -1.0114005869679409E-11  -2.4050660884511815E-12  1.4861903384222134E-10   1.4128452767895803E-10
2.55E-5                   -6.197899400664962E-11   -2.6790552402894314E-10  -4.3536502425973036E-10  -5.796417760570403E-10   -4.494064847922033E-10   -3.096767617013963E-10   -2.198127085449737E-10   -7.119381519475044E-12   2.397087492147971E-12    1.9621813661533997E-10   1.8453434644181993E-10
2.6E-5                    -9.584174160315048E-11   -3.305875846482423E-10   -5.33557145329311E-10    -6.999171968023547E-10   -5.562928837500378E-10   -4.100284684220306E-10   -3.022810126907796E-10   -2.3928240234254716E-12  8.719439860599972E-12    2.464397105586548E-10    2.2966639270533983E-10
2.65E-5                   -1.349469106955652E-10   -3.8805234737026027E-10  -6.339050654314012E-10   -8.215681912149777E-10   -6.700144145127867E-10   -5.121489433748719E-10   -3.8981167537697587E-10  4.6794937492937926E-12   1.625475460470728E-11    2.9842958555795094E-10   2.760451104841469E-10
2.7E-5                    -1.7953680580809282E-10  -4.397149680183056E-10   -7.353989270102641E-10   -9.439450677790376E-10   -7.899674571395997E-10   -6.139476612787214E-10   -4.853488851253225E-10   1.3692215947959659E-11   2.4867281871939496E-11   3.516302642955527E-10    3.228427458331982E-10
2.7499999999999998E-5     -2.2786531792056105E-10  -4.868200321135826E-10   -8.330715621087362E-10   -1.0604296794222376E-9   -9.081241431956661E-10   -7.111272123948022E-10   -5.889539120683622E-10   2.3378446508878345E-11   3.510062893531505E-11    4.0373222640318126E-10   3.6809701567152904E-10
2.8E-5                    -2.7642903186396933E-10  -5.306884945320779E-10   -9.150787484615981E-10   -1.15910086160877E-9     -1.0087466875703133E-9   -7.998175664190707E-10   -6.932782611513338E-10   3.2977621696012756E-11   4.803205736163934E-11    4.5082084845171007E-10   4.096888474282203E-10
2.8499999999999998E-5     -3.2184873585344435E-10  -5.706873726811035E-10   -9.678440226804314E-10   -1.2274501433591149E-9   -1.0784878552276431E-9   -8.775948650315898E-10   -7.887496479653752E-10   4.3299890477780617E-11   6.433810466617783E-11    4.896237448064488E-10    4.461196817182636E-10
2.9E-5                    -3.6234947907110875E-10  -6.018733486569173E-10   -9.841056801304108E-10   -1.2540063996392806E-9   -1.1147390192115573E-9   -9.41716030951252E-10    -8.700863838441385E-10   5.604608848227755E-11    8.330652763925054E-11    5.180750060690662E-10    4.750990674262127E-10
2.95E-5                   -3.97119424436359E-10    -6.146212661211927E-10   -9.640328821950334E-10   -1.2270705875888867E-9   -1.1202168670045968E-9   -9.880249646133637E-10   -9.351455339009875E-10   7.189667593381937E-11    1.0282047213917468E-10   5.326221789635298E-10    4.91691087823302E-10
2.9999999999999997E-5     -4.243810522865402E-10   -5.979134405606216E-10   -9.079714376906975E-10   -1.1360044492133003E-9   -1.0904238242673837E-9   -1.009749852815361E-9    -9.790020554100725E-10   8.941060592282619E-11    1.2048118879731672E-10   5.262568963488212E-10    4.891934164069066E-10
3.05E-5                   -4.4048421214652635E-10  -5.440635811911034E-10   -8.089442083016013E-10   -9.739388361933906E-10   -1.0096146143825336E-9   -9.95234060337719E-10    -9.913304572203064E-10   1.0598134997663751E-10   1.348268724030962E-10    4.911216731665439E-10    4.6247183541957073E-10
3.1E-5                    -4.4084892383932767E-10  -4.508508706863511E-10   -6.527238784497843E-10   -7.360822489397082E-10   -8.585655456316779E-10   -9.286943999482173E-10   -9.58913232735264E-10    1.1983287211492787E-10   1.4549686395066308E-10   4.227962078468966E-10    4.099486066140256E-10
3.15E-5                   -4.213326732267177E-10   -3.1971415827538446E-10  -4.252308468595664E-10   -4.1513335134523843E-10  -6.242063528894394E-10   -7.956634764119868E-10   -8.694356119956644E-10   1.3086873723083087E-10   1.5238589776626133E-10   3.20406666792464E-10     3.319365658354515E-10
3.2E-5                    -3.7840283941863554E-10  -1.5237183662520393E-10  -1.1979427617947702E-10  -1.3874242641956574E-12  -3.0279144528278934E-10  -5.877925284177932E-10   -7.139935529558311E-10   1.394765049229206E-10    1.5487558546487456E-10   1.8278570091435084E-10   2.275098593170311E-10
3.25E-5                   -3.0808280080506097E-10  5.089388074333572E-11    2.62500785843702E-10     5.11507681805775E-10     1.035374760270272E-10    -3.0316628751029075E-10  -4.882533858172982E-10   1.4472852689985904E-10   1.5187154902384177E-10   6.641453562146388E-12    9.360386198883683E-11
3.2999999999999996E-5     -2.0499355429438138E-10  2.901900345153397E-10    7.177477281939333E-10    1.1221804372989946E-9    5.925961675109449E-10    5.593712877934808E-11    -1.9166964367053492E-10  1.4408713615934654E-10   1.4220973336541323E-10   -2.107940161225389E-10   -7.298883304178912E-11
3.35E-5                   -6.301013612951852E-11   5.637384160555945E-10    1.2417572955757528E-9    1.8221934515734414E-9    1.1650569378131135E-9    4.864325172230306E-10    1.7588187790798438E-10   1.3487850958732772E-10   1.2461900131840874E-10   -4.687337585723128E-10   -2.733227992985526E-10
3.4E-5                    1.2195551534987505E-10   8.666671986836502E-10    1.8272912155042418E-9    2.5980911070191296E-9    1.8208134878736376E-9    9.885861385968336E-10    6.17426459455994E-10     1.1572485391874222E-10   9.728713723060559E-11    -7.630648950353508E-10   -5.061096524321897E-10
3.45E-5                   3.486012404188724E-10    1.1916808508643833E-9    2.4612327432495323E-9    3.431660806297172E-9     2.5514928503886487E-9    1.5660048302608981E-9    1.1374093780660836E-9    8.64023452952577E-11     5.7902989681294653E-11   -1.0882649791488768E-9   -7.692936668829198E-10
3.5E-5                    6.093736176497356E-10    1.5304374037057356E-9    3.1256775814172825E-9    4.299572900888079E-9     3.3365204399529267E-9    2.2175578429701308E-9    1.7349161239192969E-9    4.6660221591883506E-11   4.5967548773583006E-12   -1.4380555502544746E-9   -1.0609070346663837E-9
3.5499999999999996E-5     8.936184772363474E-10    1.8739782450784934E-9    3.7995319115691885E-9    5.173383350980449E-9     4.146406817720026E-9     2.928521267922199E-9     2.3978242812405037E-9    -4.404082005369764E-12   -6.299506990950639E-11   -1.8045600813607594E-9   -1.3772964561393776E-9
3.6E-5                    1.1922700396230387E-9    2.211731080978051E-9     4.456887198960661E-9     6.0187700609017304E-9    4.949479392097602E-9     3.6716258556138176E-9    3.1036294125561895E-9    -6.781863424431312E-11   -1.436191067196764E-10   -2.176964041492388E-9    -1.7098983037732745E-9
3.65E-5                   1.4996863898232843E-9    2.529977797923965E-9     5.0650285150966295E-9    6.794243282727811E-9     5.715899524003182E-9     4.415686799073989E-9     3.8244587755509315E-9    -1.4378470437359415E-10  -2.3526690327066444E-10  -2.540013203654161E-9    -2.0442687023736084E-9
3.7E-5                    1.811150735461782E-9     2.8111361972965015E-9    5.586465309864057E-9     7.451448961479847E-9     6.4156094418564984E-9    5.1300927569673845E-9    4.529440343066811E-9     -2.3113354048901021E-10  -3.359625968218494E-10   -2.8732300795737203E-9   -2.363344282709195E-9
3.75E-5                   2.1189228986557426E-9    3.0347512205405883E-9    5.983579938123518E-9     7.937631823264499E-9     7.011384283630096E-9     5.78190586813296E-9      5.1834453349041256E-9    -3.2743450565494603E-10  -4.436731855580181E-10   -3.152335469362911E-9    -2.6518747379697103E-9
3.7999999999999995E-5     2.410308245362503E-9     3.1800152307709973E-9    6.2209713202947645E-9    8.198940455019034E-9     7.453597591971402E-9     6.332923228889412E-9     5.747401832547104E-9     -4.295928087131632E-10   -5.55644148288698E-10    -3.3524482192261356E-9   -2.896952893704339E-9
3.85E-5                   2.6680212046909293E-9    3.2283771395454507E-9    6.263898212213025E-9     8.183840263434692E-9     7.684655297535604E-9     6.740963423722554E-9     6.181805089586991E-9     -5.344739427655618E-10   -6.680319887754909E-10   -3.4506035848758255E-9   -3.0841699059039355E-9
3.9E-5                    2.8708908345751227E-9    3.1645055225624225E-9    6.075984919903539E-9     7.846083013079078E-9     7.651727170775498E-9     6.96245129080342E-9      6.448496828173211E-9     -6.389053503600287E-10   -7.762159601322061E-10   -3.426432253179863E-9    -3.194714300707866E-9
3.95E-5                   2.9941896783131643E-9    2.9753969343424125E-9    5.6201693690688195E-9    7.145535010349614E-9     7.314861125976481E-9     6.954240508425029E-9     6.5080750109468985E-9    -7.389382737714066E-10   -8.753333034240559E-10   -3.26225717013446E-9     -3.207775342108523E-9
3.9999999999999996E-5     3.0109369075162554E-9    2.6495043926131325E-9    4.86378813761444E-9      6.04660610383308E-9      6.641903811280884E-9     6.675323889676595E-9     6.317835953766432E-9     -8.291995576093131E-10   -9.603101669653937E-10   -2.9434198279254145E-9   -3.105834750113961E-9
4.0499999999999995E-5     2.8952326119326773E-9    2.1778732690605027E-9    3.78472219885992E-9      4.517986240824939E-9     5.599384755164242E-9     6.087301681855278E-9     5.835347696725249E-9     -9.031253904804329E-10   -1.0252189620509577E-9   -2.4579417098363653E-9   -2.8769141608893263E-9
4.1E-5                    2.626575223536364E-9     1.5569499226010987E-9    2.3743513533126257E-9    2.5379163270637825E-9    4.1543860620478155E-9    5.153404994593069E-9     5.02525783161942E-9      -9.536813418762093E-10   -1.0626296777021645E-9   -1.7956568039929239E-9   -2.512148706322526E-9
4.15E-5                   2.192848835414421E-9     7.906440344140312E-10    6.363972073692507E-10    1.0419456050698811E-10   2.2870493398271563E-9    3.841250788112737E-9     3.8633345869551255E-9    -9.736203834245425E-10   -1.0638150561463585E-9   -9.49228262016707E-10    -2.002937961602172E-9
4.2E-5                    1.5903446706223716E-9    -1.1002923338107895E-10  -1.4146606864508432E-9   -2.7572408393374117E-9   -2.1455240724227575E-13  2.1325106649515215E-9    2.336575040083009E-9     -9.553397410065603E-10   -1.019922390581034E-9    8.179896489336021E-11    -1.3416506621054498E-9
4.2499999999999996E-5     8.210431454039598E-10    -1.128652500472309E-9    -3.751600695156101E-9    -5.991597419554088E-9    -2.683592295368409E-9    3.200525843337167E-11    4.4351099271103614E-10   -8.913105806516294E-10   -9.233762817740228E-10   1.2868207243624685E-9    -5.249481761078071E-10
4.2999999999999995E-5     -1.1065792258255537E-10  -2.243921288437833E-9    -6.329749645167361E-9    -9.523094525368164E-9    -5.721673441418901E-9    -2.4333002065984945E-9   -1.8025236149473646E-9   -7.752608421475635E-10   -7.687649326724541E-10   2.6436520419421262E-9    4.435682007281991E-10
4.35E-5                   -1.1987676977179794E-9   -3.428044281987426E-9    -9.084539309163317E-9    -1.3264138330646461E-8   -9.055434598254188E-9    -5.222122664445006E-9    -4.369503444312969E-9    -6.029781875728047E-10   -5.530509774049795E-10   4.121323463617451E-9     1.5525951875329056E-9
4.4E-5                    -2.4325896604299196E-9   -4.644911512861236E-9    -1.1934123051478835E-8   -1.7116334749221907E-8   -1.260702155837602E-8    -8.281744766858035E-9    -7.206022093729144E-9    -3.7193263497974977E-10  -2.7528407232984414E-10  5.68221280459686E-9      2.783367553471312E-9
4.45E-5                   -3.791373337881262E-9    -5.850630235554474E-9    -1.4783766915009216E-8   -2.096236233327964E-8    -1.628077349974104E-8    -1.1543377641474099E-8   -1.0243437904444005E-8   -8.057520428709575E-11   6.39417477622974E-11     7.2810666174179435E-9    4.110373566053912E-9
4.4999999999999996E-5     -5.240471898290606E-9    -6.996824345611259E-9    -1.7527284091820688E-8   -2.465875844839977E-8    -1.9963625272031082E-8   -1.4918736289566582E-8   -1.3396441649279369E-8   2.7121965850019034E-10   4.6270920055061267E-10   8.862850515704666E-9     5.502562925269977E-9
4.5499999999999995E-5     -6.73161120240591E-9     -8.034535310866643E-9    -2.0046672695512996E-8   -2.8039386983985166E-8   -2.352280661906262E-8    -1.8302192863447125E-8   -1.656017375901981E-8    6.80463593878527E-10     9.168782377407547E-10    1.0363030112151317E-8    6.924368326668741E-9
4.6E-5                    -8.206748962524216E-9    -8.916459203159335E-9    -2.221578478749234E-8    -3.0928027162931244E-8   -2.6806170417262432E-8   -2.1572766407627577E-8   -1.9608533717428695E-8   1.1396092851667732E-9    1.4181277644346603E-9    1.1711109330346954E-8    8.335698220756654E-9
4.65E-5                   -9.602674033248027E-9    -9.597463057860596E-9    -2.39093908859377E-8     -3.315090188740333E-8    -2.965055017829905E-8    -2.4592970008675455E-8   -2.239902253511796E-8    1.6366905002075293E-9    1.9524985259845256E-9    1.2834726179193626E-8    9.691324011343905E-9
4.7E-5                    -1.08535222636922E-8     -1.0035380392649527E-8   -2.5011241265456412E-8   -3.4543653911634886E-8   -3.189393262250629E-8    -2.721110859484884E-8    -2.4781995513589026E-8   2.156693806558345E-9     2.5011513180508385E-9    1.366184637536716E-8     1.0940994970364625E-8
4.7499999999999996E-5     -1.1890532419682152E-8   -1.019411634011951E-8    -2.541559487271959E-8    -3.495429532030931E-8    -3.338199345908791E-8    -2.927102229035607E-8    -2.6607164917074738E-8   2.6825598439471144E-9    3.043056994976749E-9     1.412225773839147E-8     1.2030973429842127E-8
4.8E-5                    -1.2641188015242271E-8   -1.0049123897253495E-8   -2.502584465934404E-8    -3.4245884982361764E-8   -3.396705746438346E-8    -3.062176786346729E-8    -2.77254860478199E-8     3.1947940966671085E-9    3.5572062413667424E-9    1.4151251409394308E-8    1.2906574789268415E-8
4.85E-5                   -1.303103896644764E-8    -9.59271403922758E-9     -2.375842647420936E-8    -3.23017392792467E-8     -3.350791058075107E-8    -3.111993216564589E-8    -2.7992358266190177E-8   3.6703445989304912E-9    4.022290781666867E-9     1.3695043464703983E-8    1.3514864505702933E-8