% Model:              analysis.mph
% Version:            COMSOL 6.0.0.405
% Date:               Jul 27 2023, 17:46
% Dimension:          1
% Nodes:              10001
% Expressions:        11
% Description:        Point graph
% Time (s)                Displacement field, Y component Displacement field, Y component Displacement field, Y component Displacement field, Y component Displacement field, Y component Displacement field, Y component Displacement field, Y component Displacement field, Y component Displacement field, Y component Displacement field, Y component Displacement field, Y component
0                         0                        0                        0                        0                        0                        0                        0                        0                        0                        0                        0
1.0E-6                    -1.5634615100746816E-45  -1.0952063699456683E-44  -1.5920131900869055E-44  -4.843212294416411E-44   -1.107401383806394E-43   -1.1583704319884194E-43  -6.461055692924406E-44   -2.3927158484832243E-45  -7.50470144337531E-46    -2.950645367278617E-46   -7.887434161691335E-48
2.0E-6                    1.525408668788042E-44    1.220707093469131E-43    2.6943895979755188E-43   8.703605678726927E-43    3.294518784350826E-42    2.5258224722516834E-42   8.828324539950652E-43    2.8358898187015196E-44   8.344426313358445E-45    2.566571442559309E-45    6.799288046066149E-47
3.0E-6                    -7.073000167037387E-44   -6.6941252937528016E-43  -2.144321982711148E-42   -6.619234917671345E-42   -3.237824605763026E-41   -2.5634795055712563E-41  -7.715042844580236E-42   -1.961562779374407E-43   -4.880512026284596E-44   -1.3708704733351476E-44  -8.769726438911313E-46
4.0E-6                    1.1356743450500062E-43   1.5174095117571487E-42   6.780418934329865E-42    1.9226475071416112E-41   1.1778599230641722E-40   1.0393399119283676E-40   3.019366366302844E-41    6.579207465383832E-43    1.3271619604637797E-43   2.8319499260964825E-44   5.933309164412022E-45
4.9999999999999996E-6     2.121670452753894E-43    4.5138151318216144E-43   -1.751788613842166E-42   -7.041793678118593E-43   -6.372164512007078E-41   -8.667656336739394E-41   -1.4113778247365161E-41  -3.376098156989482E-43   -3.483076846314616E-44   6.353579284784731E-44    -1.7745249329080618E-44
6.0E-6                    -9.449982695259992E-43   -9.675566588250811E-42   -4.535427489194969E-41   -1.3200520565899404E-40  -8.19277211870669E-40    -7.115953757904837E-40   -2.549439968165179E-40   -4.449450834729618E-42   -8.036988168783275E-43   -3.1565166757438763E-43  2.596007313195408E-45
7.0E-6                    3.273898423286906E-43    2.0578807944009072E-41   9.93132504444139E-41     2.4874628480644847E-40   2.0889502723898614E-39   2.0674264983664083E-39   5.432816994520879E-40    9.56770117922143E-42     1.951472237937172E-42    -4.805974997751041E-44   1.08634992722633E-43
8.0E-6                    2.3035890056833687E-42   -9.874094811719768E-42   7.466336252450423E-41    2.6076795113955327E-40   1.644104147964433E-39    1.1402932068098458E-39   8.646384839199133E-40    1.0803281120703659E-41   2.3748317859854893E-44   1.3231900320750715E-42   -1.8893832690651292E-43
9.0E-6                    -2.0770036572816424E-42  -8.245344706710629E-41   -5.555878584210802E-40   -1.2124627310805327E-39  -1.287358766119855E-38   -1.2003139860501333E-38  -3.4284196637351895E-39  -4.554044973892738E-41   -8.032932395175297E-42   -5.996923541615639E-44   -1.3470701882704497E-43
9.999999999999999E-6      -2.8473587457878286E-44  2.7956942704438006E-40   2.2503910544248767E-40   -1.4380424024493159E-40  2.308182522973695E-39    5.796459728995167E-39    -1.667307774024032E-39   -1.0555085284272946E-41  1.2193866842913387E-41   -3.606548158038014E-42   6.76479113104106E-43
1.1E-5                    2.880484422201628E-42    5.6000563555222726E-42   2.2083108511289317E-39   3.3533520851866484E-39   5.639670820738771E-38    4.501062573582065E-38    1.4079560506820083E-38   1.2562287159931155E-40   1.3642450427296718E-41   -3.0663955175529016E-43  -6.0387178905694634E-43
1.2E-5                    -3.205799280335719E-41   -1.6832335629533084E-39  -2.0488517741394028E-39  1.7452226181339827E-39   -2.5029327848790216E-38  -5.158734708764831E-38   1.3084654880345334E-39   -3.2289500887908017E-41  -5.84112868021637E-41    8.51378929654397E-42     -7.272864550297889E-43
1.3E-5                    7.409437750937402E-42    1.3865174153693025E-39   -8.603918401307344E-39   -7.410983116431624E-39   -2.2317720462465455E-37  -1.3010672625436741E-37  -4.898097477161639E-38   -2.2332023152441466E-40  7.278244329459013E-42    4.594720158733482E-43    3.3566294519879207E-42
1.4E-5                    1.834968108979547E-40    7.597686446295451E-39    9.658199949326656E-39    -2.2400717750403466E-38  8.150141370435641E-38    2.6011047630304237E-37   1.9430031081658484E-39   2.751438798571137E-40    1.5682962451247208E-40   -3.247868984744365E-41   -1.4688888902136302E-42
1.4999999999999999E-5     -2.978527437835128E-41   -8.509788659147729E-39   3.427771693484937E-38    1.5100124278040876E-38   8.327382479175089E-37    3.05958354340512E-37     1.6678775376504904E-37   2.898209587335823E-40    -1.2176200771217135E-40  -3.6426488397122705E-42  -6.87664651535025E-42
1.6E-5                    -5.286408519352003E-40   -3.1319716147525936E-38  -3.7169450075953455E-38  1.446603655529403E-37    -9.690063622023321E-38   -1.127494503808417E-36   2.1578678845089976E-38   -1.1126300862839746E-39  -1.939459513964285E-40   1.7408678409453663E-40   5.333175031864937E-42
1.7E-5                    -3.9534115450150943E-41  3.206643925986614E-38    -1.2883532997961568E-37  -1.0262555489215702E-38  -2.8554643543278592E-36  -6.515315412934468E-37   -5.638737080378367E-37   -8.573838894258982E-40   5.545328824300703E-40    1.3817241664858174E-40   -1.669820149650766E-41
1.8E-5                    3.1517125171257454E-40   1.2156779805543303E-37   1.2825537075362279E-37   -6.602107556705683E-37   -4.690837739603656E-37   4.554008516436929E-36    -3.639409154172806E-37   1.862909822571652E-39    -5.123183093781237E-40   -6.696017412323219E-40   -1.3866788679532687E-41
1.8999999999999998E-5     9.037549488390912E-41    -7.98005680928365E-38    4.339901558462752E-37    -1.7033973925907682E-37  8.89155046628883E-36     1.9138262106177223E-36   1.6637113939961724E-36   4.253571117729779E-39    -2.5002997203618223E-39  -1.142158464296423E-39   2.2517769003634663E-40
1.9999999999999998E-5     4.146068902486681E-39    -4.282481050525767E-37   -4.3165157622303565E-37  2.4070939419565267E-36   3.775978256183027E-36    -1.6824274792396106E-35  2.4843029894087092E-36   7.824233861654985E-39    3.723927655329525E-39    1.2452152113351712E-39   1.6243991947857204E-40
2.1E-5                    3.043887182038666E-39    8.017143161745899E-38    -1.34078955030898E-36    1.3537166172060979E-36   -2.571523934923452E-35   -9.470996376032276E-36   -3.3624529451278435E-36  -9.540886332150245E-39   1.1236145504415463E-38   4.6824127510893206E-39   -1.1221218885284499E-39
2.2E-5                    -1.939345661734251E-38   1.314481999111175E-36    1.4979322315752465E-36   -7.518312188195577E-36   -1.771681289213334E-35   5.436601510487522E-35    -1.0895900872587754E-35  -7.405760597546316E-38   -9.61144277020675E-39    1.3679435116170773E-39   -1.2980239265789811E-39
2.3E-5                    -2.0417332552814403E-38  4.014680015404174E-37    4.161301036876923E-36    -7.037054864681943E-36   7.084463662458161E-35    4.890022481584218E-35    7.254064396025491E-37    -2.660469669805453E-38   -4.166758214045273E-38   -9.898565538315911E-39   3.504220175227692E-39
2.4E-5                    4.187385701290468E-38    -3.404651662236083E-36   -4.9950741812144255E-36  2.0428262574643722E-35   7.363059065277948E-35    -1.465428904845031E-34   3.3415618422075857E-35   3.2451623157123015E-37   7.663167886676415E-40    -1.43715243814864E-38    6.17482244500718E-39
2.4999999999999998E-5     5.807281027482435E-38    -2.8977153951809133E-36  -1.3923462192398052E-35  3.06945507841175E-35     -1.7946714412738468E-34  -2.090527619629176E-34   2.728704032914487E-35    3.2531585034471176E-37   1.1240705236679943E-37   2.853038448238938E-39    -6.987916966017484E-39
2.6E-5                    -3.6207943040599743E-38  7.07556750382961E-36     1.367252201035143E-35    -4.356145385104219E-35   -2.876999072121742E-34   3.0522486536530498E-34   -6.948718037995372E-35   -1.0146015745445743E-36  9.59006238909264E-38     3.385663587113716E-38    -1.9712817954446434E-38
2.7E-5                    -4.772769124772638E-38   1.1356623448987654E-35   4.762043137895527E-35    -1.12360697488633E-34    3.614837183744454E-34    7.229079316679257E-34    -1.3164015798069695E-34  -1.6615619597619902E-36  -1.8143635631115346E-37  4.275618089538496E-38    7.239742921275234E-39
2.8E-5                    -3.3730392820300465E-38  -1.0033828272678561E-35  -2.3808544218372208E-35  4.5921380990876504E-35   9.859194977306692E-34    -3.740543344579266E-34   6.957357841785322E-35    2.5045403158629966E-36   -4.311866307573385E-37   -1.336024948661078E-38   4.514424857439981E-38
2.9E-5                    -2.71864797681078E-37    -3.2909071713664406E-35  -1.493747604920307E-34   3.230948579850662E-34    -3.453310192444584E-34   -2.0203471960058593E-33  3.8239565596522265E-34   6.478730099832035E-36    -3.3432613642333336E-38  -1.0885450028945663E-37  1.3236853247095045E-39
2.9999999999999997E-5     3.5814161479370374E-38   9.794782663813715E-37    -8.153622981610145E-36   1.1750224783922362E-34   -2.724793376343039E-33   -3.907761276385576E-34   1.414711322375612E-34    -4.5318859289854874E-36  1.0975813210898888E-36   -9.935412611816659E-38   -8.240543077562666E-38
3.1E-5                    1.4576145596011042E-36   7.309693250309258E-35    3.981132520477916E-34    -6.772473674007775E-34   -1.0707473185708172E-33  4.416260762021548E-33    -7.71961136739019E-34    -2.1938749188829323E-35  1.2979765341472011E-36   7.427294550529889E-38    -1.090359816251071E-38
3.2E-5                    7.2372337247784436E-37   4.922354209919361E-35    2.558619123607547E-34    -7.689291774985174E-34   5.568802788825171E-33    3.976482821698801E-33    -9.381233904146455E-34   1.1362583463246508E-36   -1.6658498859317767E-36  1.5599760383843025E-37   1.6169011644966496E-37
3.2999999999999996E-5     -4.40454933427555E-36    -1.1645651547195693E-34  -8.408260823642052E-34   8.904762602305454E-34    6.620803881690941E-33    -6.63775411653134E-33    9.30106081515035E-34     6.419444043208297E-35    -4.9754636116634835E-36  2.663473414997907E-38    1.666806698503095E-38
3.4E-5                    -4.590818526004304E-36   -1.85107032575321E-34    -1.1807807322659335E-33  2.258387341355761E-33    -6.788201744470269E-33   -1.339862545167543E-32   2.7760132437610695E-33   3.912439598439979E-35    3.290051925319905E-37    2.1973050630474266E-37   -4.282318409910611E-37
3.5E-5                    9.474804316580379E-36    9.046853916922448E-35    1.1635897920589072E-33   -1.2368237340877149E-34  -1.9080551930017204E-32  2.7538569538481757E-33   4.12936825102135E-34     -1.4771216278556503E-34  1.300274160827823E-35    6.844180875859186E-37    -2.013995932220929E-37
3.6E-5                    1.765069249616228E-35    4.24602424445034E-34     3.558458862691901E-33    -4.4960033940940385E-33  -2.1067613190162982E-33  2.8409980874919714E-32   -5.305898458502493E-33   -2.1453882915231464E-34  8.073609649201814E-36    -4.934131546980857E-37   1.102969534135197E-36
3.7E-5                    -1.1609015379525062E-35  1.605473556055752E-34    1.340235717673124E-34    -3.0565646914144208E-33  3.466119040353655E-32    1.9026332397796932E-32   -5.630580697630148E-33   2.0645568837968788E-34   -2.712554669206477E-35   -3.594403620883737E-36   1.3436096411812395E-36
3.7999999999999995E-5     -4.842350717256023E-35   -6.534790844317053E-34   -7.546776351953636E-33   6.152410381637551E-33    3.320690739564584E-32    -3.4833188474672043E-32  5.03457781722325E-33     6.965308030613241E-34    -3.7876584766103233E-35  -2.7629637625641962E-36  -1.8528173565499713E-36
3.9E-5                    -8.766963101235426E-36   -8.211272310379065E-34   -6.479222193241169E-33   1.0259719331080686E-32   -3.277937057725825E-32   -6.474761801511105E-32   1.5584554205092404E-32   1.0643796269769814E-34   4.041357230068357E-35    6.698435554850901E-36    -4.920692095246939E-36
3.9999999999999996E-5     9.351148714960146E-35    4.734342755020833E-34    9.654647326111579E-33    -3.168474492816815E-33   -8.540070422920271E-32   -1.50519056912299E-33    6.420795023393873E-33    -1.4886390195851548E-33  1.1976805781072938E-34   1.3844690650134198E-35   3.2839744707490605E-37
4.1E-5                    8.445524340666109E-35    1.8392927099171653E-33   2.0858376804020203E-32   -2.0720633011594166E-32  -2.22723444816031E-32    1.034192988479612E-31    -2.1379059636676963E-32  -1.5656063907755166E-33  -3.9668459807391695E-36  1.1083311234183982E-37   1.157689648956616E-35
4.2E-5                    -1.154139438653057E-34   8.238246107885944E-34    4.428754779873857E-34    -1.1773812010966921E-32  1.151177762573972E-31    1.0344490421119815E-31   -3.438856240121896E-32   1.7040073446027166E-33   -2.7450730327421846E-34  -2.6644533360187293E-35  8.998769468378962E-36
4.2999999999999995E-5     -2.351032656264656E-34   -2.3373834612007465E-33  -3.6754784261885494E-32  2.4542375651263854E-32   1.4061957435859724E-31   -5.118929054756029E-32   -1.6493277503714853E-33  4.752035603836384E-33    -2.1989286184714213E-34  -2.6559345122883403E-35  -1.6797477804006316E-35
4.4E-5                    4.010868635581551E-35    -3.586089634040321E-33   -3.3811432436469944E-32  4.072151835147394E-32    -3.632108014397142E-32   -2.018954045221435E-31   5.591380202449185E-32    1.1333925087832944E-33   3.846373820270986E-34    1.7022571641674862E-35   -3.2457428320836204E-35
4.4999999999999996E-5     4.382259677899218E-34    2.4060019490647045E-34   2.9415311453820646E-32   -1.0155233722121923E-33  -2.3395672562865484E-31  -1.4300836645933747E-31  6.892301732596701E-32    -7.884256061053452E-33   7.823393733155618E-34    5.483650001105912E-35    4.824666345764862E-36
4.6E-5                    2.3697930904372627E-34   5.9062343935210274E-33   7.918212573461336E-32    -6.098560489747909E-32   -1.816545855517146E-31   1.1442874534268339E-31   -6.894289667592721E-33   -9.652400300220641E-33   -2.2325771189359146E-35  2.734167590655964E-35    6.608759996523837E-35
4.7E-5                    -5.903011258997814E-34   5.830664931892774E-33    2.7702697963513033E-32   -5.560370381243813E-32   1.2253673593507662E-31   3.160769723616529E-31    -1.1880636048862446E-31  4.492403567485054E-33    -1.4453104828171436E-33  -4.189631764758189E-35   5.242103827371779E-35
4.8E-5                    -8.541520464994622E-34   -2.5795075105796864E-33  -8.640310596703485E-32   2.8439248822725577E-32   3.5721029581031593E-31   2.270281646313681E-31    -1.4032827706732024E-31  2.0894656654010153E-32   -1.3234726397157891E-33  -6.086795229381491E-35   -7.107780332970687E-35
4.9E-5                    3.4160080115440296E-34   -1.1403268455188064E-32  -1.1278391838064364E-31  9.681204688331181E-32    2.3455720338047197E-31   -1.1827904684853599E-31  3.298139457756324E-33    1.3445034381297487E-32   1.1205040757648432E-33   3.5635416217960806E-36   -1.7093320642050627E-34
4.9999999999999996E-5     1.7404733616517768E-33   -9.255348997484136E-33   9.902279562515813E-33    5.962070033960727E-32    -1.6304442755104223E-31  -4.3738390183703955E-31  2.2018001563773994E-31   -1.990234655165315E-32   3.159591692370034E-33    5.516332712940488E-35    -5.216788851159407E-35
5.1E-5                    9.715563082136321E-34    5.1513037000561023E-33   1.3853414957583264E-31   -4.912693230848214E-32   -4.62816409129952E-31    -4.347067722064066E-31   2.8845859597015913E-31   -4.1483559688905425E-32  1.4228708057960987E-33   -2.065435407640358E-35   2.7062596113030214E-34
5.2E-5                    -1.904502750588625E-33   1.8636321575380866E-32   1.012531004663526E-31    -1.112054473521921E-31   -3.7223322503947678E-31  -3.6404457476225994E-32  6.052077234787223E-32    -1.3360003659650456E-32  -3.0593707821177673E-33  -1.548861397810425E-34   4.1773714025485235E-34
5.3E-5                    -3.330741293332897E-33   1.554183465730957E-32    -5.501227040791666E-32   -6.770142977952728E-32   6.62338978340983E-32     5.1602250944367375E-31   -3.3996067250781283E-31  4.7051598407961617E-32   -4.997753920105916E-33   -7.024486500067267E-35   -5.277323609622402E-35
5.4E-5                    -4.590604356060341E-34   -5.052759779947746E-33   -1.2078947015661686E-31  2.9264168716722E-32      5.239049225534561E-31    7.82628533406651E-31     -5.556681090575615E-31   7.101569620548702E-32    -1.253130331382146E-33   3.6700879386128356E-34   -8.965964163792297E-34
5.4999999999999995E-5     4.258197741436987E-33    -2.5586195040244223E-32  -2.957525406427422E-32   1.0109193060738032E-31   6.307982285331291E-31    4.502434914546544E-31    -2.9670211830334617E-31  1.3532621337590245E-32   4.7212392962557955E-33   7.030495937852288E-34    -9.12840256674073E-34
5.6E-5                    5.0092820362314914E-33   -2.569479011164883E-32   4.795479874041978E-32    1.1380447190455348E-31   2.43396536677922E-31     -3.46509809461062E-31    3.505831736426728E-31    -8.309150404961927E-32   6.653949449130652E-33    1.4381483883676412E-34   7.083761204458296E-34
5.6999999999999996E-5     -2.4478538791922723E-34  -2.5304129300741423E-33  -1.4606649456338527E-32  5.425533346972279E-32    -4.181507074916226E-31   -1.0530677137201005E-30  9.153065079645386E-31    -1.1829493770934507E-31  2.468550243410738E-33    -1.2847234193145699E-33  2.4500659432690543E-33
5.8E-5                    -6.455215066177902E-33   2.5450950207644626E-32   -7.937626139397687E-32   -8.201935323467776E-32   -8.909768605642275E-31   -1.1238777197278594E-30  8.766794339267387E-31    -3.352709310267263E-32   -4.268713892699105E-33   -2.037075903741846E-33   1.343536546209243E-33
5.9E-5                    -6.697116101472207E-33   3.567569784967011E-32    3.7319061054026573E-32   -2.230194513325937E-31   -7.99669845117075E-31    -4.4112124722348025E-31  7.794218813603119E-32    1.1789459443631195E-31   -8.607046879838733E-33   -4.475444815821688E-34   -2.6982418739085975E-33
5.9999999999999995E-5     6.586841042455686E-35    2.1371145854931668E-32   2.28716957971797E-31     -2.0992943552517363E-31  -1.2362271392358263E-31  6.626020198636972E-31    -1.0875053311569632E-30  2.021904686810299E-31    -7.521488218245009E-33   2.7638240226726342E-33   -4.8833440412299984E-33
6.1E-5                    7.467644214705893E-33    -6.147753128411638E-33   2.0041293969564057E-31   3.790755803203304E-32    8.01440820033993E-31     1.6500784231069044E-30   -1.8353739662024E-30     1.1415307444254027E-31   -2.853020765880626E-34   4.2960575361993625E-33   -9.75774575766232E-34
6.2E-5                    7.961243813140612E-33    -3.132699110751425E-32   -9.784214842185188E-32   3.539855892739115E-31    1.4566814792221208E-30   1.9508529141389175E-30   -1.4258588197653354E-30  -1.2085499308605506E-31  1.0437490609325588E-32   1.6317237894041578E-33   5.7328573041995086E-33
6.3E-5                    6.802535402954112E-34    -4.4710353106016626E-32  -3.6441204986297914E-31  4.274870231570797E-31    1.3345130473244831E-30   1.1014554122803407E-30   2.965566465039187E-31    -3.326606267472598E-31   1.7190787475612733E-32   -3.6650958774341024E-33  7.079844118048609E-33
6.4E-5                    -6.70311745628054E-33    -3.983648023993236E-32   -3.361571690930141E-31   1.2853815251174091E-31   1.998355183444348E-31    -8.76412217228172E-31    2.5411888297444342E-30   -3.1219906860303044E-31  1.1579550882343684E-32   -6.962646867873046E-33   6.427484414769996E-34
6.5E-5                    -5.6210513612675856E-33  -9.867075220783987E-33   -8.671187024056673E-32   -3.2651149592724905E-31  -1.569818772482767E-30   -3.078161680436413E-30   3.7533991828737725E-30   1.0901597660746087E-32   -6.921254286213995E-33   -4.947160396203548E-33   -6.868677556902448E-33
6.599999999999999E-5      2.1854554598393966E-33   4.186112566714978E-32    1.7698344603246649E-31   -5.861904209154397E-31   -2.899581355773656E-30   -3.971789573432401E-30   2.5196349734229248E-30   4.523431130376398E-31    -2.680767905349565E-32   1.4869178823757821E-33   -8.696929130182412E-33
6.7E-5                    4.186277293497109E-33    8.863475273156574E-32    4.0857650064785225E-31   -4.9367399570803315E-31  -2.5625574818867934E-30  -2.455796272751097E-30   -1.1935740286780952E-30  6.539692751798359E-31    -3.171512618193801E-32   8.24096081392412E-33     -4.995062320212162E-33
6.8E-5                    -6.605435320656364E-33   9.01409692308733E-32     6.009914606393717E-31    -1.49736480676585E-31    -1.5896927742192666E-31  1.1274784511413088E-30   -5.4280650086544536E-30  3.545529816083993E-31    -1.322978072210188E-32   1.0810002794294578E-32   2.1745022807365363E-33
6.9E-5                    -1.6678031853834073E-32  2.702593658765494E-32    5.266331003717298E-31    2.8562151807200784E-31   3.2405283885697234E-30   4.984054401698703E-30    -7.104701807902289E-30   -3.4925223510166596E-31  2.1495134868749962E-32   6.481538777659284E-33    1.2634773531817104E-32
7.0E-5                    -4.0885694019552504E-33  -7.31522078718173E-32    -7.230685184047177E-32   7.093620425287856E-31    5.4510758989864754E-30   6.876218476489872E-30    -4.1654330167169914E-30  -9.955627852971658E-31   5.207901213101373E-32    -4.027944315337405E-33   1.9861674885636578E-32
7.099999999999999E-5      2.940829368138829E-32    -1.5006242673821474E-31  -9.966326571446078E-31   9.650609861875961E-31    4.500262669817489E-30    5.3552018655247244E-30   2.5218165616014506E-30   -1.0579941568056919E-30  5.551526029479708E-32    -1.552054748512178E-32   8.831044149582603E-33
7.2E-5                    4.8753267495506485E-32   -1.5446409092533673E-31  -1.5517938602165594E-30  7.769041238720616E-31    1.5472880974104722E-31   5.409346446964595E-31    9.202951482984364E-30    -3.439835590302518E-31   2.0964756755249736E-32   -1.9893403533692099E-32  -2.2435368686520525E-32
7.3E-5                    2.1267740097706432E-32   -8.01250788687645E-32    -1.1412041887018286E-30  -2.4438997239331788E-32  -5.4778620597388194E-30  -5.764857192743634E-30   1.1502180086812318E-29   8.13120578182618E-31     -3.8928835011287744E-32  -1.1355726563723704E-32  -4.436839447010262E-32
7.4E-5                    -4.064379152934446E-32   4.0471501234149905E-32   1.830353055186489E-31    -1.1935584489502083E-30  -8.99252857134089E-30    -1.0676264161524583E-29  7.31467683141557E-30     1.7160454823926033E-30   -9.05475689206567E-32    8.160025552063032E-33    -2.182675175855448E-32
7.5E-5                    -8.554392536593592E-32   1.59611372580169E-31     1.7521071762330022E-30   -2.096789576203768E-30   -7.880057691881998E-30   -1.1455615068326328E-29  -1.770250643716058E-30   1.7159310979027402E-30   -9.833078286429624E-32   2.863276796559506E-32    3.4814299019465946E-32
7.599999999999999E-5      -7.375184007734894E-32   2.285570098848043E-31    2.6742022200080493E-30   -2.1187395621206227E-30  -2.2569250500793894E-30  -6.91185959273601E-30    -1.1332271270010203E-29  6.23622866190892E-31     -4.8406438987606783E-32  3.73463500003806E-32     6.65912884022119E-32
7.7E-5                    -1.1210958883695628E-32  2.0221279053285763E-31   2.213766224891703E-30    -1.0742163882400192E-30  5.190137733559953E-30    1.7756210243488233E-30   -1.6453930009180426E-29  -1.1158078951536356E-30  4.0203883988489574E-32   2.536070033743523E-32    3.1842944884605047E-32
7.8E-5                    6.789649573843295E-32    5.59932839179487E-32     1.9172110127075763E-31   6.618281148509857E-31    1.0798260595212321E-29   1.1282811284890267E-29   -1.4145004724302816E-29  -2.602040889697189E-30   1.238161790914204E-31    -8.275748891188094E-33   -3.8321792332938985E-32
7.9E-5                    1.322808473480956E-31    -1.8311183376766157E-31  -2.619700346759852E-30   2.2670239709014944E-30   1.1735184184149826E-29   1.7376781553216643E-29   -4.849969217843305E-30   -2.9560799808127216E-30  1.5612755681310297E-31   -5.286263869081189E-32   -7.190574521106616E-32
7.999999999999999E-5      1.525402699964185E-31    -4.24359649277766E-31    -4.63259045639604E-30    2.7650349877174313E-30   7.131081345317724E-30    1.6751897611166004E-29   7.541748662671854E-30    -1.84429483045042E-30    1.130392574877298E-31    -8.348986388452908E-32   -3.743226551056876E-32
8.099999999999999E-5      8.874398577001247E-32    -5.505961625275571E-31   -4.4193993953227225E-30  1.5474792740780419E-30   -1.532724626856358E-30   8.732618844695528E-30    1.7385000429963947E-29   2.970459852177747E-31    7.935314965015529E-33    -6.87003655688335E-32    2.6926529722336406E-32
8.2E-5                    -7.880519264573469E-32   -4.900088986448606E-31   -1.826770572196726E-30   -1.1035389721100025E-30  -1.0916797346788436E-29  -4.1466187478741115E-30  2.0077172418113916E-29   2.5212443966203622E-30   -1.1325077979819142E-31  5.646219112253349E-33    6.181610608142824E-32
8.3E-5                    -2.8589680896953043E-31  -2.6888978102313585E-31  1.8355841015512367E-30   -4.0877177658617655E-30  -1.7517049585813937E-29  -1.7286617578648022E-29  1.4456506102928793E-29   3.92300315656782E-30     -1.9693229804144346E-31  1.1150150548640728E-31   4.1846881044126295E-32
8.4E-5                    -3.7780405871261307E-31  -4.1707884072797894E-33  4.633619292596645E-30    -6.364375380756261E-30   -1.9884142190502733E-29  -2.6335669585881844E-29  3.267982920930241E-30    4.044359096384519E-30    -2.1022224733788146E-31  1.8150936104679305E-31   -1.5426099579813604E-32
8.499999999999999E-5      -2.18670839524359E-31    1.5664031140316895E-31   5.012778169899751E-30    -7.871447839249863E-30   -1.95031032790804E-29    -2.9217353978241826E-29  -8.62741008009548E-30    2.8711997119091167E-30   -1.5316241560076903E-31  1.4885189901072967E-31   -6.610450576737008E-32
8.599999999999999E-5      1.569022599653605E-31    1.0337670390199618E-31   2.3655956063624977E-30   -9.47884522094426E-30    -1.923548711255124E-29   -2.677852015630004E-29   -1.7109477278035342E-29  5.831637862552058E-31    -5.207516086506627E-32   -2.024080239786574E-33   -5.977827772155034E-32
8.7E-5                    5.091141936534445E-31    -2.00657118807555E-31    -2.7005777085430466E-30  -1.199832086407957E-29   -2.066374350962604E-29   -2.2052248816744973E-29  -2.089402700815937E-29   -2.5856357953821248E-30  5.262123697332261E-32    -2.1101492304349615E-31  2.1045559829422961E-32
8.8E-5                    5.536984560779746E-31    -7.18368598634401E-31    -8.334783372736059E-30   -1.5296079368926358E-29  -2.286787079065255E-29   -1.8720098678828253E-29  -2.1666702514754616E-29  -6.2498586124141776E-30  1.162813386108039E-31    -3.62189262757939E-31    1.1799155976780302E-31
8.9E-5                    2.058671076434811E-31    -1.3516984937619919E-30  -1.2082747225049609E-29  -1.8278015854919292E-29  -2.3577462777816756E-29  -1.929421133231866E-29   -2.2441972236189588E-29  -9.740381501364978E-30   1.055727261832966E-31    -3.421472090539746E-31   1.2415441322319171E-31
8.999999999999999E-5      -3.166802982123702E-31   -1.9559185013918043E-30  -1.2266492665773865E-29  -1.9525020957912498E-29  -2.1279443235962066E-29  -2.3635201312461535E-29  -2.547586869682237E-29   -1.2160986512259912E-29  2.4693719613305777E-32   -1.1279946589184083E-31  -5.2600130566160196E-33
9.099999999999999E-5      -6.505459670788451E-31   -2.3737330883887827E-30  -9.184147183883752E-30   -1.8035386339208536E-29  -1.6370363873829297E-29  -2.87453949773195E-29    -3.1080580541475906E-29  -1.2629657649841676E-29  -6.741019028875969E-32   2.453016378960691E-31    -1.7968719875200954E-31
9.2E-5                    -5.771707301122952E-31   -2.5032856591609078E-30  -5.069806302609665E-30   -1.3870125274892493E-29  -1.0757613180155609E-29  -3.038070400935432E-29   -3.767983875321083E-29   -1.0545562540486678E-29  -8.052311292561251E-32   5.618050196272005E-31    -2.4691328901891263E-31
9.3E-5                    -1.8626880186517485E-31  -2.3625556572568446E-30  -2.790173398207461E-30   -8.47183274546546E-30    -6.525867773622693E-30   -2.5662793932347065E-29  -4.255596635933416E-29   -5.7696828615744326E-30  4.049952135916927E-32    6.694637172253638E-31    -1.3996546917073953E-31
9.4E-5                    2.180835836821349E-31    -2.0807658319196562E-30  -4.177326826123283E-30   -4.117711858169433E-30   -4.542218022856284E-30   -1.4853126320901928E-29  -4.280953710607715E-29   1.3002924452961164E-30   2.5435195287467667E-31   4.911033022896077E-31    7.385653992347821E-32
9.499999999999999E-5      3.4855993081680255E-31   -1.7999639850218305E-30  -8.879750148884759E-30   -2.4452586442832104E-30  -3.750867295571927E-30   -1.0406341571616229E-30  -3.6479484420776474E-29  9.757884567037867E-30    4.282149300908807E-31    5.839145868036889E-32    2.7435786309902147E-31
9.6E-5                    9.773288294433294E-32    -1.560739833809438E-30   -1.425422048795058E-29   -3.107464454729151E-30   -1.658086480246169E-30   1.1835928866052272E-29   -2.356284016316085E-29   1.831566013169419E-29    4.1978197452732106E-31   -5.237498052730196E-31   3.703885397713591E-31
9.7E-5                    -4.3540884358618274E-31  -1.263866916426273E-30   -1.6599322743774868E-29  -3.806181233806497E-30   4.2155629681958194E-30   2.1151559478714216E-29   -6.181200912273881E-30   2.551826097066359E-29    1.7611186385205341E-31   -1.1093060723991673E-30  3.04212535130306E-31