% Model:              Untitled.mph
% Version:            COMSOL 6.0.0.405
% Date:               Jul 17 2025, 06:47
% Dimension:          1
% Nodes:              401
% Expressions:        11
% Description:        Point graph
% Time (s)                Displacement field, Y component Displacement field, Y component Displacement field, Y component Displacement field, Y component Displacement field, Y component Displacement field, Y component Displacement field, Y component Displacement field, Y component Displacement field, Y component Displacement field, Y component Displacement field, Y component
0                         8.477980640060032E-36    4.02708816537843E-35     -8.520363785626197E-34   2.837319321167628E-32    2.465721315236021E-32    7.369245061824601E-32    3.653800163596229E-33    -3.6912362764964486E-36  -1.1160908675578204E-34  -6.366847550869307E-34   -1.0243449848186804E-31
5.0E-7                    -1.2770728086575264E-27  -6.092087191017069E-27   4.867003607591568E-25    -5.526609736938474E-24   -3.98349502760538E-25    4.003384457271958E-24    8.988221329127576E-25    5.4994098970131225E-28   1.638441169462485E-26    1.0325331691989317E-25   1.2483462735288149E-23
1.0E-6                    1.9353104461411966E-27   5.877642074788927E-27    7.855384069327838E-25    1.649620115571996E-23    -2.788553939683507E-23   -1.0899112928122651E-22  -8.150223115922885E-24   -8.119253564431115E-28   -2.1109228157049067E-26  -8.091867615020286E-26   -4.439892663047299E-24
1.5E-6                    -2.1585970070002622E-27  6.4361408345872336E-27   -1.483579315914105E-23   -1.352079928759765E-23   7.661903331005606E-23    4.043837342003789E-22    1.3769527858436082E-23   7.725105068971956E-28    -8.06865296523729E-27    -6.539353361508604E-25   -4.104560775721684E-23
2.0E-6                    3.1819687424592814E-27   -2.8769546464099665E-26  1.0088643684386177E-24   -2.210496658271644E-22   1.3129149063972567E-22   -5.449587835355323E-22   2.3292160138293813E-23   -1.5595216511418065E-28  1.5592022875685466E-25   1.6850028958520503E-24   3.9953331815529497E-22
2.4999999999999998E-6     -1.475861718309187E-26   -7.965729534412646E-26   1.2638539429685787E-22   9.777823487302318E-22    -4.818972995873456E-22   3.593270625351398E-23    -8.722566133429018E-24   3.504712070456021E-27    -4.968465437695957E-25   -5.658426680678016E-25   -1.943449931421752E-21
3.0E-6                    6.0711243139945835E-27   5.7316466557959165E-25   -5.5990546830066245E-24  -8.430922244290875E-23   -1.9970508801645413E-21  1.5120415302628349E-21   -3.4041086471085317E-22  -1.739216799205757E-26   8.826157846494979E-25    5.999529310838695E-24    3.103089657274291E-21
3.5E-6                    7.092370444876152E-26    -1.0246105835273661E-24  -1.0484712123529497E-21  -4.315971427788498E-21   9.334746410681225E-21    -1.9416193279573364E-21  1.1006312208903153E-23   -2.26587293586717E-26    5.0646040454116194E-26   -3.812808984841196E-23   2.106496540226557E-21
4.0E-6                    1.2863949365662485E-25   -4.73816281981123E-24    -1.1232704693199108E-22  -1.1688571861737063E-22  5.0398646281872586E-21   -8.766433392665129E-21   2.027082387772317E-21    1.9399810913943555E-25   -5.328691272941631E-24   -6.779637426778868E-23   -2.326128851525136E-20
4.5E-6                    -1.0309906858869019E-24  1.2810787623095309E-23   4.834510296857398E-21    2.160158196418339E-20    -6.088071596916539E-20   8.935463795726403E-21    3.4686011724826536E-22   1.115108829214015E-25    1.8092843516097436E-23   3.671047940926399E-22    1.607916444458856E-20
4.9999999999999996E-6     -2.0437867609690643E-24  1.8188942647365588E-23   7.549427726480983E-22    6.341880895927484E-20    6.031737752509588E-20    2.2447366739998825E-19   -3.265251621322558E-21   -1.2163879772221725E-24  6.1797971352094745E-24   4.343947640884906E-22    4.024681844817591E-20
5.5E-6                    7.835211005864946E-24    -1.3583562117051588E-22  -4.470065079069501E-21   -6.788100243438366E-20   3.417898455933331E-19    -2.810094624319388E-20   -1.463843449751072E-20   -3.7653001152617544E-25  -2.0481280166366218E-23  -8.803459547041616E-22   -1.837676882497377E-19
6.0E-6                    7.242977001550803E-24    -9.829101224002107E-23   1.805256986646595E-20    -3.845120672907539E-19   -1.6721166960795974E-19  -1.7682086954148586E-18  -4.628827976403341E-20   5.19092213529333E-24     7.803886028018025E-23    -1.9128617946566743E-21  -5.585298053163655E-19
6.5E-6                    -5.420432097279304E-23   1.0854894084034646E-21   -4.5368113251576703E-20  5.678984922487165E-19    -8.136717501873707E-19   2.1477997142397561E-19   1.0584413957550313E-19   5.29161390233266E-24     -2.857627593654687E-22   -4.005283088242534E-21   -2.838710458058057E-19
7.0E-6                    -6.607300409024261E-23   1.5368546821617048E-21   -1.6516203460959012E-19  3.017482344785324E-18    1.746219269633921E-18    1.132341064444334E-17    5.880485598516038E-19    -5.064754072489425E-24   -5.623691064284879E-22   -2.6719775509583914E-21  7.764793461767092E-19
7.499999999999999E-6      2.0063881649323032E-22   -6.065645247233835E-22   5.284397122026794E-19    1.4042060772790229E-19   7.522518700820848E-18    8.667262944496173E-18    2.8911854583707285E-20   -4.354378614354146E-23   -2.7870602986245675E-21  1.6090464948045412E-20   -3.806266462134362E-18
8.0E-6                    5.057386682270682E-22    1.6446556270273986E-20   1.820186981782171E-18    -1.0120993892807768E-17  7.395642772311832E-18    -3.448827390313817E-17   -3.133007397225175E-18   -1.3349682215191002E-22  -2.858009367455311E-20   -7.187428159342445E-20   -1.858062326716815E-17
8.5E-6                    5.651211607444356E-22    1.0184286115635197E-19   -1.0813789412160678E-18  2.286605982506273E-18    -3.752842428967194E-18   -3.9168915492473175E-17  -2.743016656495564E-18   -2.0764349325480849E-22  -1.2669939703896925E-19  -7.536222792170247E-19   -2.37890026674242E-17
9.0E-6                    2.404119818037103E-21    3.0743096258763132E-19   -8.592020598297779E-18   6.672612468387741E-17    2.1960148527499814E-17   1.3466280467650551E-16   1.2844472247495263E-17   -9.151810000678196E-22   -4.83108831427811E-19    -2.671973737332674E-18   -1.6378610491276436E-17
9.499999999999999E-6      1.4717781811479912E-20   9.129887526177613E-19    5.048962354405448E-18    1.0536785705519659E-16   1.7170535034071093E-16   3.181582102936592E-16    2.6173749443203732E-17   -5.605317612071269E-21   -1.902641600016113E-18   -6.793430162638857E-18   -8.712962211760533E-17
9.999999999999999E-6      6.897206043550694E-20    3.1965162964969864E-18   7.254560480687926E-17    -3.5459138455555014E-19  3.539855744144208E-16    4.459560338566804E-18    -1.8886881172750763E-17  -2.2939875842828808E-20  -6.9058378683759454E-18  -1.9790485925658408E-17  -3.5683904615516735E-16
1.05E-5                   2.4918827305111904E-19   1.0749592555316336E-17   1.4526116454245245E-16   1.106948730356577E-17    3.2585798591521325E-16   -5.350186050360476E-16   -9.37222022064671E-17    -7.701577745319305E-20   -2.351244595148926E-17   -7.003828873502711E-17   -8.59510198068433E-16
1.1E-5                    7.69847776905432E-19     3.2981567120791355E-17   1.2176439050265278E-16   9.62630242329208E-16     6.04543294998316E-16     4.3108621020955815E-16   2.2476582993802422E-17   -2.409939483831265E-19   -7.839959402170219E-17   -2.319011448815759E-16   -1.6807310886967898E-15
1.15E-5                   2.440058329266406E-18    9.609532080719063E-17    2.566046720492948E-16    3.259344492382109E-15    2.824171916916458E-15    3.3876358958536085E-15   4.117974407779855E-16    -7.500192373452477E-19   -2.498146224785988E-16   -6.678054251519196E-16   -3.4449064643842113E-15
1.2E-5                    8.160331131932552E-18    2.6908350205842405E-16   1.6348354231501549E-15   5.92585603065364E-15     7.436454128114318E-15    4.552830523899766E-15    4.893149559599178E-16    -2.397101938865782E-18   -7.475375613638643E-16   -1.784590623589695E-15   -8.363357182789447E-15
1.2499999999999999E-5     2.616542169131439E-17    7.225860657092614E-16    5.7729343079119236E-15   9.93340071705486E-15     1.2707242314104402E-14   1.7055048041060081E-15   -3.52048788119478E-16    -7.590397806747725E-18   -2.135345094723865E-15   -4.7343746634539356E-15  -2.163814117435202E-14
1.3E-5                    7.843991164993734E-17    1.8667842676549606E-15   1.3667093411386205E-14   2.647000868109141E-14    2.1814765701104293E-14   5.272266187227794E-15    -7.766694563495672E-16   -2.276943277338692E-17   -5.894379795425377E-15   -1.2503911515110815E-14  -5.138497707243621E-14
1.35E-5                   2.268318334887767E-16    4.61612182901013E-15     2.78028098835326E-14     7.861059339800347E-14    5.0867274585581983E-14   3.1014529167352345E-14   2.197245800666535E-15    -6.485722499335269E-17   -1.5610252746732796E-14  -3.1778612045148146E-14  -1.0895563610468183E-13
1.4E-5                    6.419723429307879E-16    1.078312393926412E-14    6.083388167124454E-14    1.8822732545573746E-13   1.2201317840976586E-13   7.12502540655591E-14     7.932024342413499E-15    -1.8024229084287478E-16  -3.928951054025014E-14   -7.629061962766745E-14   -2.2225172701401972E-13
1.45E-5                   1.7596182308684202E-15   2.3690479784334052E-14   1.4707507879212154E-13   3.7934626911946626E-13   2.5556962472686553E-13   9.620401145241545E-14    9.26843342524216E-15     -4.940065419047713E-16   -9.388757202990936E-14   -1.7381367277037782E-13  -4.667500396199182E-13
1.4999999999999999E-5     4.627848303605615E-15    4.933464566719563E-14    3.4602826970622145E-13   7.438866341240985E-13    5.00464428603222E-13     1.2429021409029496E-13   4.010914937750937E-15    -1.3196643853582977E-15  -2.1347569625787987E-13  -3.794321821179398E-13   -9.785739695773165E-13
1.55E-5                   1.1668760985999322E-14   9.812073091195398E-14    7.406607064497003E-13    1.521172262973352E-12    9.869157036971857E-13    2.8449795700702165E-13   1.1850555733143299E-14   -3.3914502581578353E-15  -4.613228487674631E-13   -7.938643523661969E-13   -1.9173818989076676E-12
1.6E-5                    2.820731907766175E-14    1.8615914223112812E-13   1.4603154646057298E-12   3.057399131873835E-12    1.9222072577257827E-12   7.358080643594806E-13    6.23023278984183E-14     -8.368698911287095E-15   -9.43381169888169E-13    -1.5785877314146428E-12  -3.468031027294398E-12
1.6499999999999998E-5     6.51825095492239E-14     3.359460308303329E-13    2.74220366116141E-12     5.681277072577337E-12    3.5525454460118226E-12   1.4639158211609577E-12   1.504318024380989E-13    -1.990634266339589E-14   -1.817260128567844E-12   -2.9563611077852017E-12  -6.0161413546932405E-12
1.7E-5                    1.4339672599409422E-13   5.807353235585783E-13    4.9647643633838344E-12   9.759780768319415E-12    6.265074741371096E-12    2.22524638401659E-12     2.3639448325659625E-13   -4.566502455247148E-14   -3.2865263701222222E-12  -5.185753267654903E-12   -1.0294633236942612E-11
1.75E-5                   2.992717171354764E-13    9.784473043814394E-13    8.554887657684285E-12    1.58634991139429E-11     1.0774029330014752E-11   2.9263924702985484E-12   3.514339353551438E-13    -1.0049847038869975E-13  -5.565775701623756E-12   -8.488683061508112E-12   -1.692592216499053E-11
1.8E-5                    5.910087642429162E-13    1.6303271665698043E-12   1.3783537428729344E-11   2.432794484766468E-11    1.7805572965607715E-11   4.2805723798553236E-12   6.99071317908956E-13     -2.1086008418323361E-13  -8.805380220971493E-12   -1.2907721972336485E-11  -2.5362532185727985E-11
1.85E-5                   1.1021449111513868E-12   2.6851592780924335E-12   2.0538552189945166E-11   3.40187360694558E-11     2.692489796212211E-11    7.90182800911232E-12     1.5542974944285736E-12   -4.204772244234145E-13   -1.2987228885738579E-11  -1.8136270138486174E-11  -3.3530073705273974E-11
1.8999999999999998E-5     1.9368801064544897E-12   4.314763646434501E-12    2.8032344598645154E-11   4.1875251140685354E-11   3.563594378939149E-11    1.503849824212438E-11    3.0389778720423653E-12   -7.966076516301227E-13   -1.784004281894253E-11   -2.347220688629385E-11   -3.9275722825962E-11
1.95E-5                   3.199514693894458E-12    6.669220306151066E-12    3.447988741308457E-11    4.487485474054683E-11    4.067198626306233E-11    2.469097873958453E-11    5.163543249951736E-12    -1.4326592659863056E-12  -2.284265860517373E-11   -2.799589188262813E-11   -4.2220318236333056E-11
1.9999999999999998E-5     4.9537687964139425E-12   9.82425819771055E-12     3.741709549118558E-11    4.281385746079362E-11    4.1078849628033814E-11   3.350608244180901E-11    8.206360799905893E-12    -2.4381298937404183E-12  -2.7342957128936975E-11  -3.082059320729548E-11   -4.333156962566298E-11
2.05E-5                   7.17169225521506E-12     1.3709416885329312E-11   3.539474367017024E-11    3.807631804826755E-11    3.9334877685127974E-11   3.858695813495617E-11    1.2789979708908989E-11   -3.908901275233192E-12   -3.0723590996444813E-11  -3.120360288331363E-11   -4.2510251364141275E-11
2.1E-5                    9.698981457017559E-12    1.8014220318361944E-11   2.988678424932674E-11    3.210583990651832E-11    3.8008667876230025E-11   4.042516465540392E-11    1.9154388002378225E-11   -5.88435585993618E-12    -3.2486636720177717E-11  -2.865536347011652E-11   -3.7780617987556695E-11
2.1499999999999997E-5     1.2264731030209625E-11   2.2151011146311065E-11   2.435857818651714E-11    2.3357430427233636E-11   3.5538861898283077E-11   4.1895883510693446E-11   2.6353963121787952E-11   -8.309671120759891E-12   -3.2199415862624204E-11  -2.3272726097299237E-11  -2.7490759206901396E-11
2.2E-5                    1.454284769384456E-11    2.5398510462843325E-11   1.982177993822902E-11    9.601435181424768E-12    2.710453303024757E-11    4.389074753121146E-11    3.261861512555709E-11    -1.1016490377089202E-11  -2.938672444508552E-11   -1.5858774760617073E-11  -1.2155324671105228E-11
2.2499999999999998E-5     1.6241262125499392E-11   2.718429959551159E-11    1.1775707173958864E-11   -9.321962839778037E-12   1.0100090432867508E-11   4.307319785839603E-11    3.6712737782453294E-11   -1.3725325041166727E-11  -2.3521641520021122E-11  -7.103845606592384E-12   6.879287933151118E-12
2.3E-5                    1.7160047349806173E-11   2.7184706549830998E-11   -6.126355943699814E-12   -3.269018484151154E-11   -1.3034527125431002E-11  3.4912439385999986E-11   3.865178942323847E-11    -1.6078697701396936E-11  -1.4187250836667745E-11  3.677945020374433E-12    2.976715402744703E-11
2.35E-5                   1.715001788303675E-11    2.5009009182278828E-11   -3.458478006527762E-11   -6.147412328269457E-11   -3.838819452734256E-11   1.8215295966719533E-11   3.8937818022288347E-11   -1.770990787681528E-11   -1.2545546058663136E-12  1.8580748425893378E-11   5.823577631415958E-11
2.4E-5                    1.599645221816605E-11    1.9885838709666682E-11   -6.685719948161177E-11   -9.743384847189791E-11   -6.544115634474159E-11   -4.41251934438847E-12    3.7396631844066557E-11   -1.830884003722985E-11   1.5295185627764748E-11   3.9381491687553034E-11   9.39799077237537E-11
2.45E-5                   1.3402783830380777E-11   1.1110099115400917E-11   -9.610525451147143E-11   -1.4031127884095894E-10  -9.71457095638327E-11    -3.017709054237304E-11   3.285881536035207E-11    -1.7630553372595643E-11  3.598140401258994E-11    6.582500772154867E-11    1.3756451726120681E-10
2.4999999999999998E-5     9.167367686139E-12       -1.002770177718851E-12   -1.2327509431070115E-10  -1.88105900709458E-10    -1.3648844081231624E-10  -5.906676409801879E-11   2.3562788324349998E-11   -1.5477157323478024E-11  6.208049037687808E-11    9.589280246054324E-11    1.879838422309569E-10
2.55E-5                   3.258857076500802E-12    -1.5268052570886754E-11  -1.5573590201663537E-10  -2.3953146839238004E-10  -1.843316878161722E-10   -9.33645795994963E-11    7.800606823774959E-12    -1.173467302669505E-11   9.467131361839684E-11    1.2790779846328086E-10   2.425673903104356E-10
2.6E-5                    -4.578106976341636E-12   -3.1591496255765016E-11  -1.9847733260032223E-10  -2.9370987453980497E-10  -2.3926805119966696E-10  -1.353251745997301E-10   -1.510620495875612E-11   -6.3922460989181165E-12  1.332809030047062E-10    1.6240386950453996E-10   2.9806378754502724E-10
2.65E-5                   -1.5330490597024123E-11  -5.2425634834061954E-11  -2.4811818544517087E-10  -3.4770998420734525E-10  -2.9745525033797345E-10  -1.8559542222650084E-10  -4.4029208800053066E-11  6.551142823842743E-13    1.7605566317028373E-10   2.0153254393752162E-10   3.5229955267361785E-10
2.7E-5                    -3.039337738354317E-11   -8.08540744660319E-11    -2.955039763806941E-10   -3.9713456669107586E-10  -3.5307787469602103E-10  -2.4279384208705593E-10  -7.692065073416588E-11   9.9252272945256E-12      2.2137364462532708E-10   2.458053965845587E-10    4.040484633390593E-10
2.7499999999999998E-5     -5.034865615958877E-11   -1.1675248239664516E-10  -3.331696953076574E-10   -4.394546803845673E-10   -4.012278335269804E-10   -3.0346361594493694E-10  -1.1327031539243812E-10  2.2301744962403687E-11   2.683985493493696E-10    2.9135725210209343E-10   4.5122474332679835E-10
2.8E-5                    -7.425122293514195E-11   -1.561053491571701E-10   -3.602062828990006E-10   -4.741021574353218E-10   -4.4101198165301565E-10  -3.6255145745146733E-10  -1.552703879836852E-10   3.8454661282759985E-11   3.157405753305098E-10    3.315281629270176E-10    4.903776174469021E-10
2.8499999999999998E-5     -1.0045978163333299E-10  -1.9498651998916566E-10  -3.8023148373656194E-10  -4.984148208369612E-10   -4.745494362915735E-10   -4.1515873163086523E-10  -2.0551620233820403E-10  5.836865863148355E-11    3.6066092316087967E-10   3.6157113350832826E-10   5.180688599364993E-10
2.9E-5                    -1.2792138941429677E-10  -2.329869434744084E-10   -3.944613594080419E-10   -5.058696577748842E-10   -5.020510447810249E-10   -4.5882274824531947E-10  -2.6337069245886707E-10  8.15780517596493E-11     4.0016553096135935E-10   3.8073297983896874E-10   5.313140089770004E-10
2.95E-5                   -1.5613890680296006E-10  -2.712933518677949E-10   -3.9712762554989666E-10  -4.896584922829607E-10   -5.182353585435088E-10   -4.939110672015237E-10   -3.2424465413441635E-10  1.0763740494077592E-10   4.317631287996485E-10    3.894972357462522E-10    5.262091088965185E-10
2.9999999999999997E-5     -1.8408041085828474E-10  -3.0829848333784666E-10  -3.7886391540975176E-10  -4.461999505860767E-10   -5.138450873354599E-10   -5.208919057639366E-10   -3.8269363086336613E-10  1.3598100591122737E-10   4.5233772867482335E-10   3.864890662956927E-10    4.972440377749605E-10
3.05E-5                   -2.0988453277835494E-10  -3.3903277765752205E-10  -3.3440186571794675E-10  -3.737125019746764E-10   -4.805328057619177E-10   -5.366807142034142E-10   -4.356917289111794E-10   1.6542426616053136E-10   4.5721315140855286E-10   3.686669916864692E-10    4.3838283000014086E-10
3.1E-5                    -2.3185164066072196E-10  -3.588170277726618E-10   -2.6493124472258533E-10  -2.6889969661894136E-10  -4.1459268288372533E-10  -5.337482846444669E-10   -4.825036205076758E-10   1.9429656690248461E-10   4.412718425103347E-10    3.3245218597882793E-10   3.4416589266997834E-10
3.15E-5                   -2.491796108812634E-10   -3.6581862704158345E-10  -1.7237611806888452E-10  -1.2699607109743918E-10  -3.164384066175286E-10   -5.030586940652607E-10   -5.217264620979402E-10   2.2117568808761075E-10   4.006134582169616E-10    2.733951427587228E-10    2.101742381541058E-10
3.2E-5                    -2.6136143823891895E-10  -3.5979305549265173E-10  -5.390600689643051E-11   5.5311731730667885E-11   -1.861587547436576E-10   -4.381470754755755E-10   -5.488857835099086E-10   2.451256894101329E-10    3.327827421003166E-10    1.8661743674088287E-10   3.391115600897223E-11
3.25E-5                   -2.6703114006064766E-10  -3.396042377830465E-10   9.580606353722059E-11    2.781120118055566E-10    -1.9364984440804765E-11  -3.367823877695475E-10   -5.565773885949389E-10   2.6510585367251886E-10   2.359511139218111E-10    6.93813817754132E-11     -1.8443795703160403E-10
3.2999999999999996E-5     -2.634129526533409E-10   -3.0208420796343966E-10  2.7825030743515925E-10   5.387669274598212E-10    1.912248155076917E-10    -1.9912662704310708E-10  -5.36240670935144E-10    2.7944257878286094E-10   1.081599691782373E-10    -7.77588010457302E-11    -4.428454450551204E-10
3.35E-5                   -2.465427039571957E-10   -2.420302339096462E-10   4.892812968691254E-10    8.327591017160327E-10    4.483498584135246E-10    -2.451373907316722E-11   -4.799286661614716E-10   2.858348936379118E-10    -5.304916130117686E-11   -2.5341595569491403E-10  -7.386688828394834E-10
3.4E-5                    -2.1207360722046911E-10  -1.5337833103955753E-10  7.23199932647284E-10     1.1537633642592632E-9    7.447662343116243E-10    1.8979416748372864E-10   -3.817081955677784E-10   2.8135084297027E-10      -2.5015494299313603E-10  -4.5752814124582386E-10  -1.0678459644954764E-9
3.45E-5                   -1.5662861710411852E-10  -3.231639164993225E-11   9.763316866734925E-10    1.4933173252597063E-9    1.0670582525736419E-9    4.464704856922499E-10    -2.388507335845859E-10   2.623260252199337E-10    -4.839376003278044E-10   -6.894275036454704E-10   -1.4229774573290907E-9
3.5E-5                    -7.905958425878852E-11   1.1979725207896843E-10   1.2453807968558957E-9    1.8404761803095219E-9    1.4049037453422369E-9    7.44806869922122E-10     -5.217245964396851E-11   2.2495555738153923E-10   -7.517132274024476E-10   -9.444672792001933E-10   -1.7933140307316942E-9
3.5499999999999996E-5     1.9580835084090363E-11   2.977870019239924E-10    1.522687732906944E-9     2.1818652343029825E-9    1.7545561503089348E-9    1.0796930451682366E-9    1.7522519010867677E-10   1.6653214388073032E-10   -1.0473328140813479E-9   -1.213887211668889E-9    -2.166460060367548E-9
3.6E-5                    1.3755481517019427E-10   4.97755626925638E-10     1.7938590424119202E-9    2.5024390029245835E-9    2.112327744009566E-9     1.443323518092646E-9     4.40199292797765E-10     8.593439678508628E-11    -1.362646823571646E-9    -1.487533302227718E-9    -2.5285523921891054E-9
3.65E-5                   2.741039172756618E-10    7.197154359477381E-10    2.0406580966205574E-9    2.7858137245502188E-9    2.466004766020167E-9     1.8263875762156232E-9    7.41118687358757E-10     -1.723301667686017E-11   -1.6881666230922042E-9   -1.7554447622173118E-9   -2.862171454855546E-9
3.7E-5                    4.298695481169381E-10    9.640657236579078E-10    2.246653126911526E-9     3.012796263002043E-9     2.793501026927814E-9     2.216422427439756E-9     1.0775349132075997E-9    -1.4351567083911702E-10  -2.0120196538696003E-9   -2.0068859579898193E-9   -3.1453280267733695E-9
3.75E-5                   6.057510815507851E-10    1.2262125525742763E-9    2.399867207766855E-9     3.1599576085631987E-9    3.068875190350217E-9     2.5955277212887567E-9    1.4478758508310424E-9    -2.9331379428844874E-10  -2.3191377770285877E-9   -2.2290084592831257E-9   -3.353863940403757E-9
3.7999999999999995E-5     8.005663038152806E-10    1.4956185632926376E-9    2.4894423880682274E-9    3.2020978763779043E-9    3.2689905550290084E-9    2.941294206436298E-9     1.8459117125703122E-9    -4.660751550193139E-10   -2.5924729672810053E-9   -2.4069228214601028E-9   -3.464884833760086E-9
3.85E-5                   1.0085106045992837E-9    1.7591823645762066E-9    2.5000564872814862E-9    3.1179835872285554E-9    3.3755243016156435E-9    3.2309832808273283E-9    2.2577108129123496E-9    -6.599364334668183E-10   -2.8148359506475763E-9   -2.5245315250027225E-9   -3.4575546282051885E-9
3.9E-5                    1.2185060523408568E-9    2.0038874069699973E-9    2.4107946638320517E-9    2.8930798063497825E-9    3.3720397595734726E-9    3.444881847433705E-9     2.6614673438785755E-9    -8.714002631053675E-10   -2.968752184259042E-9    -2.5650905945903286E-9   -3.3115841303162814E-9
3.95E-5                   1.4170246225739144E-9    2.2163210790460497E-9    2.2005702250533333E-9    2.51580496406026E-9      3.23980872599655E-9      3.5657518775882765E-9    3.0312128072845735E-9    -1.094591614024914E-9    -3.0348714915690108E-9   -2.5118563112445407E-9   -3.0069853513667414E-9
3.9999999999999996E-5     1.5925551493297277E-9    2.3812907264334945E-9    1.8554754754711047E-9    1.9726645157360555E-9    2.9573528888795464E-9    3.575647248804598E-9     3.34211226384685E-9      -1.3210390261400107E-9   -2.992203117763633E-9    -2.349397213676412E-9    -2.526633925973991E-9
4.0499999999999995E-5     1.7372967786247886E-9    2.4817503296243223E-9    1.3717950134865792E-9    1.2497368614446829E-9    2.505386099458254E-9     3.4535994193850947E-9    3.573125182400679E-9     -1.540695397783766E-9    -2.8211491313857657E-9   -2.0650071637417687E-9   -1.859369410321987E-9
4.1E-5                    1.8442869733744759E-9    2.499733597300596E-9     7.526802614969354E-10    3.400857734018629E-10    1.8727576984428984E-9    3.176226301643641E-9     3.7050042020333837E-9    -1.7429845739198617E-9   -2.506287528980053E-9    -1.649484549254614E-9    -1.0011276137233595E-9
4.15E-5                   1.903441573004721E-9     2.4176173109039272E-9    2.4815364815795856E-12   -7.499471537285001E-10   1.0575685601454259E-9    2.721001338986567E-9     3.716052227729715E-9     -1.916557863493427E-9    -2.0364067917189446E-9   -1.0975265339746573E-9   4.552079870669398E-11
4.2E-5                    1.9009876824381046E-9    2.2198351250124865E-9    -8.748074686759623E-10   -2.0000095921229144E-9   6.374149515956436E-11    2.070743092983826E-9     3.580164041520481E-9     -2.048623093220574E-9    -1.4035244414189258E-9   -4.081481851042574E-10   1.2711986096576752E-9
4.2499999999999996E-5     1.8223369927548394E-9    1.894445989330338E-9     -1.8707825593319498E-9   -3.37900489740663E-9     -1.101057413705549E-9    1.2174598417025068E-9    3.2694523218602052E-9    -2.125354136747566E-9    -6.038903418023161E-10   4.1493843221097163E-10   2.6577103837007647E-9
4.2999999999999995E-5     1.6548231883509683E-9    1.4333617943581977E-9    -2.9665432675100423E-9   -4.8489153389953906E-9   -2.4227091459331404E-9   1.6383140911290467E-10   2.7597166140286604E-9    -2.1328951630286754E-9   3.59368464242776E-10     1.3625973069259167E-9    4.175431384224961E-9
4.35E-5                   1.3882710942247862E-9    8.317091018322824E-10    -4.131586653725448E-9    -6.366849012197694E-9    -3.876092087608905E-9    -1.0780122584136382E-9   2.0349846738316646E-9    -2.0575708045076213E-9   1.4746861719082415E-9    2.4186168569864335E-9    5.782588987690392E-9
4.4E-5                    1.0148970446738169E-9    8.833897873111032E-11    -5.32745977431618E-9     -7.884144936027529E-9    -5.423348659880013E-9    -2.488746010372198E-9    1.0887542914414049E-9    -1.8857661233791998E-9   2.722409091276386E-9     3.5581779259667698E-9    7.4273604435481244E-9
4.45E-5                   5.304949821926444E-10    -7.919304788809675E-10   -6.510853710365335E-9    -9.34360425086202E-9     -7.016001651521499E-9    -4.0427579978803885E-9   -7.724331133426728E-11   -1.6050396880353782E-9   4.075418604466171E-9     4.748385736517431E-9     9.050889267965034E-9
4.4999999999999996E-5     -6.363130187338478E-11   -1.7960766561491002E-9   -7.633625027790132E-9    -1.0678415233186182E-8   -8.598608859531473E-9    -5.7066864317864494E-9   -1.4538860894210093E-9   -1.206181288852258E-9    5.498944175479692E-9     5.950573930384867E-9     1.05888159060912E-8
4.5499999999999995E-5     -7.600558851497834E-10   -2.9022047400609808E-9   -8.642196170226544E-9    -1.18151359530024E-8     -1.0111388222194197E-8   -7.436612849336763E-9    -3.0231984837999845E-9   -6.843137453928652E-10   6.9501330256689956E-9    7.121886543420916E-9     1.1971358480904231E-8
4.6E-5                    -1.5466955006122374E-9   -4.080253146811225E-9    -9.4787699076738E-9      -1.2678893121070723E-8   -1.1490786426703592E-8   -9.176039718966411E-9    -4.755597415502507E-9    -3.861244693578044E-11   8.37800820850223E-9      8.215189041606247E-9     1.3124030445502061E-8
4.65E-5                   -2.4087543795007395E-9   -5.293345272634683E-9    -1.0084087413550707E-8   -1.3197498584276442E-8   -1.2668947865877659E-8   -1.0856515086244842E-8   -6.608411590021361E-9    7.277204599591457E-10    9.724000196317154E-9     9.179185863349264E-9     1.3970380497922128E-8
4.7E-5                    -3.328734881171808E-9    -6.4995118720617E-9      -1.0401053683880773E-8   -1.3303957255654757E-8   -1.3574455982323529E-8   -1.2401436756285649E-8   -8.526579958934188E-9    1.6062733010137188E-9    1.0923564539585877E-8    9.960350913815528E-9     1.4436062739570517E-8
4.7499999999999996E-5     -4.283810314975605E-9    -7.653196265349704E-9    -1.037915429654459E-8    -1.293913664299001E-8    -1.4135920851505755E-8   -1.3731572269518852E-8   -1.0443936438902123E-8   2.5821051126704267E-9    1.1909136425237292E-8    1.050579759884929E-8     1.4452609752730544E-8
4.8E-5                    -5.242841057303984E-9    -8.705614202743073E-9    -9.978243251207329E-9    -1.2055371353864812E-8   -1.428712277546119E-8    -1.4769396361257332E-8   -1.2283701589771143E-8   3.6334665841059996E-9    1.2613424120223034E-8    1.0765410104536891E-8    1.3960340490121283E-8
4.85E-5                   -6.166440421768426E-9    -9.604220754807663E-9    -9.169391028734277E-9    -1.0619972952524994E-8   -1.3970843280567575E-8   -1.5440394207555145E-8   -1.395922514912489E-8    4.732249306802204E-9     1.2972048529757812E-8    1.0693096399998299E-8    1.2911522670372917E-8