% Model:              analysis.mph
% Version:            COMSOL 6.0.0.405
% Date:               Jul 4 2023, 15:56
% Dimension:          1
% Nodes:              10001
% Expressions:        11
% Description:        Point graph
% Time (s)                Displacement field, Y component Displacement field, Y component Displacement field, Y component Displacement field, Y component Displacement field, Y component Displacement field, Y component Displacement field, Y component Displacement field, Y component Displacement field, Y component Displacement field, Y component Displacement field, Y component
0                         0                        0                        0                        0                        0                        0                        0                        0                        0                        0                        0
1.0E-6                    -1.3480205582636746E-42  -1.4932071092945912E-43  8.936651271779696E-44    9.545099298046788E-45    7.984587547020486E-47    2.141481727003053E-46    -7.070091672774707E-48   2.4725792648860958E-49   2.0274410322446898E-50   8.3370691482131E-52      2.4204837939882354E-53
2.0E-6                    2.574357807745948E-41    5.131440086159488E-42    9.548337659509959E-43    1.1100904280065638E-43   2.2170740515303131E-44   -1.109538036315749E-45   9.515319001772043E-47    -1.980871254471772E-48   -2.0994949399456666E-49  -8.205112556080686E-51   -2.5311876405324512E-52
3.0E-6                    -1.9915369953443158E-40  -5.859473967548685E-41   -2.8945852907793087E-41  -3.550961835763686E-42   -4.2359312014183855E-43  -1.4947449475254826E-44  -1.1779676744137455E-45  -1.2948551154025953E-47  9.213581177246629E-49    3.5135976216376383E-50   1.1718933884683165E-51
4.0E-6                    5.4183174378961035E-40   2.5472449385596203E-40   1.808998928598825E-40    2.351009396886489E-41    2.5953817362415857E-42   1.4427893808451897E-43   7.357440215095037E-45    1.6452827202499207E-46   -4.4930672703668117E-48  -1.8566094305277987E-49  -4.71475759734932E-51
4.9999999999999996E-6     5.2964024056660455E-40   -3.193633692332015E-40   -4.269610072586943E-40   -6.803015171698588E-41   -7.450840036508008E-42   -6.548094438566572E-43   -2.7772391049218973E-44  -9.454021933698721E-46   1.341604803142414E-47    9.441023791175772E-49    2.0867467380836214E-50
6.0E-6                    -5.8675913191661896E-39  -1.383489007966295E-39   -4.071308132028272E-40   2.0674898166663743E-41   2.0971852832377968E-42   1.6075647659141165E-42   4.4837514568209013E-44   3.018358488010928E-45    2.475808494507637E-47    -2.3966032770633193E-48  -8.008444973907644E-50
7.0E-6                    6.065687731860714E-39    5.6143366409197213E-39   4.384794994934696E-39    4.391727918153099E-40    5.554508556481913E-41    -3.741921126314188E-43   1.0772503986627386E-43   -2.4413451620351185E-45  -3.646724348911747E-46   -3.116062044425517E-48   1.646446785838546E-49
8.0E-6                    2.6849408652604207E-38   -1.3453169215347038E-39  -5.227047055848835E-39   -1.0508243734600752E-39  -1.4319421823096468E-40  -1.0869439053184651E-41  -6.810158940431117E-43   -1.8584299457260718E-44  1.240076479826596E-45    4.3670426503392216E-47   2.4273320672802416E-49
9.0E-6                    -5.448466306792831E-38   -2.9563560529555286E-38  -1.8792154315524373E-38  -2.185493008182576E-40   -6.406971620895322E-41   2.986269758949625E-41    7.773736503930756E-43    6.307621754090671E-44    -1.1137325045145624E-45  -1.3248906653206508E-46  -2.8794646461227756E-48
9.999999999999999E-6      -8.760905696041275E-38   3.9928070806706223E-38   4.6226142586786753E-38   4.2832329703343954E-39   8.124224687432196E-40    -3.798979535061001E-42   2.9422812600620946E-42   1.6512791010606105E-45   -5.1911217721454673E-45  8.935609546158964E-47    8.576868866892517E-48
1.1E-5                    2.6327162311821327E-37   1.00240752928148E-37     6.198839784640434E-38    -5.842903054743888E-39   -6.919048942190394E-40   -1.3719460417344447E-40  -8.711502986694853E-42   -3.820267457971732E-43   1.9343625909857362E-44   6.0213940411143925E-46   -6.277425549650895E-48
1.2E-5                    2.528294633594861E-37    -2.370366656494323E-37   -2.44494949656318E-37    -1.2804456732347414E-39  -2.332885428911719E-39   2.310235495477701E-40    -5.258554698826942E-42   4.937263486036425E-43    -1.698041872827292E-44   -2.0003067426919756E-45  -3.695336331796139E-47
1.3E-5                    -9.697955912069533E-37   -2.700388360975994E-37   -2.2184400092749933E-37  2.673383887248328E-38    4.4853123240842326E-39   2.3115505920955248E-40   4.4898050099725885E-41   1.3625868669132854E-42   -5.700188437994612E-44   1.3226580651774835E-45   1.286346774224156E-46
1.4E-5                    -7.087499818684393E-37   9.631444204478372E-37    1.0953181157595506E-36   -7.442297647088148E-38   1.826876258639317E-39    -1.0919578420137243E-39  -8.813124252046606E-42   -3.5982569954971857E-42  1.895841080300149E-43    7.202513753605591E-45    -1.0297538365260016E-46
1.4999999999999999E-5     3.0520544234754716E-36   6.6751666098730885E-37   9.679061022685777E-37    -4.56437474172691E-38    -1.4937144289203962E-38  3.281955627328495E-40    -1.6278325468746667E-40  -2.4570569625518187E-42  -9.110028869419663E-44   -1.9268079430303404E-44  -4.015340110206041E-46
1.6E-5                    1.8844884491218788E-36   -3.099160535761634E-36   -4.438924637215479E-36   5.489751107750762E-37    2.3542848095054986E-38   2.612446356673128E-39    9.98080848725645E-41     1.544324727299519E-41    -6.639311800196764E-43   -1.6829371416558852E-45  1.240036655960379E-45
1.7E-5                    -8.990064094748612E-36   -1.5728877655470118E-36  -4.595313269050368E-36   -8.158147640600662E-38   3.2810874840384455E-38   -2.743369959441951E-39   4.5479097775747405E-40   -3.4251207887101864E-42  1.2930943262249842E-42   8.305207235851387E-44    -4.822373865843023E-46
1.8E-5                    -4.747765354782269E-36   8.094500359033306E-36    1.6130745132548826E-35   -2.799842549966859E-36   -1.9145454032415915E-37  -3.0078692808006293E-40  -4.386605386067175E-40   -4.5173047330376375E-41  1.0759467672777548E-42   -8.198782809728549E-44   -4.2578804226167853E-45
1.8999999999999998E-5     2.721566312810632E-35    2.2839462869038577E-36   2.1046588777360538E-35   6.335183468814987E-37    -6.633552234999022E-38   5.5574646093311804E-39   -9.594843901222696E-40   4.21444760247256E-41     -5.471572051301387E-42   -2.383747518411247E-43   8.040052010464648E-45
1.9999999999999998E-5     1.4747588328006998E-35   -1.8077442476460947E-35  -5.138519182388986E-35   1.1934112401312052E-35   9.862445866943263E-37    -3.492368551103924E-38   1.5460044409706357E-39   9.024505500801074E-41    -1.6695037515046703E-43  4.177282990363566E-43    5.230588874959786E-45
2.1E-5                    -8.526484146379544E-35   7.279358605487466E-36    -8.812552235962286E-35   -2.7044268092056856E-37  3.2661787830601745E-37   5.940587162613257E-39    1.239143108725183E-39    -1.6822258531881347E-40  1.539280106289511E-41    6.431837904939348E-43    -3.366511071449687E-44
2.2E-5                    -6.877828904509259E-35   4.7001424993186716E-35   1.3898440160732243E-34   -4.365625797697371E-35   -4.010079749757403E-36   2.4184852955689743E-37   -5.3986544866203136E-39  -1.115989528542318E-40   1.980130699631373E-42    -1.393636804360035E-42   1.5060917360230932E-44
2.3E-5                    2.443510302659546E-34    -6.896471545705689E-35   3.318887791984038E-34    -1.4423606790335248E-35  -2.3435846148228996E-36  -5.577823684149035E-38   5.006620961748692E-40    4.477513261775096E-40    -3.672864279828802E-41   -2.2255448499032795E-42  9.23994899906911E-44
2.4E-5                    3.348994917409536E-34    -1.9308975748086643E-34  -2.943046135287933E-34   1.3472521837297786E-34   1.3389283238224457E-35   -1.1695860033373482E-36  1.9848104272132013E-38   9.57218709914452E-41     -5.552567613045746E-41   4.1189175848055236E-42   -1.014815369901707E-43
2.4999999999999998E-5     -5.280975689111677E-34   2.3852277178294754E-34   -1.1160972102595417E-33  1.0547064359455334E-34   1.3162976926856262E-35   -3.644445158275358E-38   -6.79927834678254E-39    -9.323824766055208E-40   1.0288818016372748E-40   9.318295973549577E-42    -2.2485046170915133E-43
2.6E-5                    -1.3068782844584353E-33  8.47761243486962E-34     3.327113489622448E-34    -3.3852248234040717E-34  -3.654312102882438E-35   4.6028928781043474E-36   -7.22159171796661E-38    -6.303730632393536E-40   4.1609506822640005E-40   -1.259178530404934E-41   3.602820141036873E-43
2.7E-5                    5.0620431879875805E-34   -2.5573024062277294E-34  3.295731143815869E-33    -4.697895867558317E-34   -5.741947691898647E-35   1.9427829148907053E-36   7.140524428309332E-39    1.947471677177013E-39    -4.007617508240331E-40   -3.838157834773217E-41   6.731941385986619E-43
2.8E-5                    3.811785267934844E-33    -2.8468600898568242E-33  8.495265199313962E-34    6.409426784541169E-34    7.677834961074654E-35    -1.5047553027204176E-35  2.382118886974773E-37    5.534865824775031E-39    -2.088856747231504E-39   4.124574850969795E-41    -1.3154426624294739E-42
2.9E-5                    1.73785392296294E-33     -1.5262936533929406E-33  -8.21180588928386E-33    1.5704884981368045E-33   2.041111244681046E-34    -1.3788401799136137E-35  8.920455572131668E-38    -5.81790844408835E-39    1.726088773209364E-39    1.4584792564066685E-40   -2.4696170381412158E-42
2.9999999999999997E-5     -7.812570828488015E-33   6.457752013770966E-33    -7.109481466043529E-33   -6.552359533816293E-34   -8.981885903690022E-35   3.9760916023447425E-35   -6.631719995921397E-37   -3.166401405212851E-38   8.500389822707237E-39    -1.3843170128384493E-40  5.979772646708604E-42
3.1E-5                    -1.0583395003085067E-32  9.382863530479439E-33    1.5804135371588446E-32   -4.182084571587341E-33   -5.9912662541431385E-34  6.381095559703119E-35    -6.609690935458433E-37   2.1376163030858913E-38   -6.801128531156154E-39   -5.189464099233677E-40   8.437928998860841E-42
3.2E-5                    8.548113524535833E-33    -7.512325216737585E-33   2.7517173286522237E-32   -1.1208192982896901E-33  -1.6571836818791953E-34  -7.649237526409193E-35   1.4232048414165442E-36   1.3975804721470749E-37   -3.042027630199523E-38   4.5251655990506574E-40   -2.847378119300814E-41
3.2999999999999996E-5     3.0438122176840937E-32   -2.805805947061518E-32   -1.7484112149935277E-32  8.842946777501028E-33    1.3953850314181237E-33   -2.2449800146403977E-34  2.791698539604393E-36    -6.683750113296777E-38   2.3233569157560842E-38   1.772726242574478E-39    -2.2729236987776086E-41
3.4E-5                    8.913265044809154E-33    -7.882509136980008E-33   -7.409008935164258E-32   8.540388370739287E-33    1.442563692288742E-33    5.88811832157957E-35     -1.7638242884537764E-36  -5.123848428127614E-37   9.99130076036355E-38     -1.3857058813710614E-39  1.236674256886872E-40
3.5E-5                    -5.397326489586695E-32   5.222163508182532E-32    -1.7180588088646848E-32  -1.3382998822099245E-32  -2.2136647090177374E-33  6.1802083002637845E-34   -8.570087723586122E-36   1.4844814595944064E-37   -6.736130711810069E-38   -5.875463523555998E-39   4.1421701260091506E-41
3.6E-5                    -6.669226778446188E-32   6.102953291392136E-32    1.4169932025546306E-31   -2.82005836206612E-32    -5.147549223524103E-33   2.8217119434282764E-34   -2.061159815438547E-36   1.6067667987662572E-36   -3.069931324170506E-37   3.8264601201226686E-39   -4.78096693803171E-40
3.7E-5                    4.160118274648505E-32    -5.021832368168922E-32   1.4529665563751717E-31   6.766334604914517E-33    6.648810300042784E-34    -1.2823575582337395E-33  1.9649585861633758E-35   -1.806880448029263E-37   1.588342570884825E-37    1.878368587365836E-38    -1.727987490129423E-41
3.7999999999999995E-5     1.623436468786766E-31    -1.5955693161325757E-31  -1.614501871851307E-31   6.354791566103293E-32    1.1844826354613845E-32   -1.597272914044974E-33   2.0393346634641217E-35   -4.4099728264674465E-36  8.832698257644407E-37    -9.064046533014541E-39   1.667916017849934E-39
3.9E-5                    7.901138562220386E-32    -4.213463425949303E-32   -4.060421284818178E-31   3.802961542235412E-32    9.133728556727541E-33    1.6670378142039015E-33   -3.028107681443191E-35   -1.3671908396174374E-37  -2.6656858659576266E-37  -5.719276682687025E-38   -2.1840232921122346E-40
3.9999999999999996E-5     -2.0619183317332995E-31  2.571722820206381E-31    -3.75478578790617E-32    -9.356344944351905E-32   -1.6066077500459645E-32  4.7518455126626974E-33   -7.111808341244475E-35   1.0974105460332224E-35   -2.3546184110105156E-36  1.6622709189131326E-38   -5.3444069216377795E-39
4.1E-5                    -3.3219672311944887E-31  2.98105869271855E-31     6.9206281785552375E-31   -1.5385074888634645E-31  -3.311101103273523E-32   2.83809854709692E-34     1.0925792899351178E-35   1.4650523838414103E-36   1.1002629961482982E-37   1.6422068812474037E-37   1.028448550771346E-39
4.2E-5                    1.0024609469688143E-32   -2.005815986047877E-31   6.490888837508026E-31    4.0333873032688296E-32   -6.968999197669924E-35   -9.408398309493687E-33   1.6450846938390986E-34   -2.5985354628569844E-35  5.73281048814035E-36     -1.42006293291355E-38    1.5949459724264613E-38
4.2999999999999995E-5     5.304058842191563E-31    -7.096846621567706E-31   -6.095934374303018E-31   3.1864828926031167E-31   6.209139606647891E-32    -8.408450168460993E-33   1.107704446850048E-34    -5.7252214776000493E-36  1.3404648741695156E-36   -4.427392907409537E-37   -2.6717955041285187E-39
4.4E-5                    5.123526332983835E-31    -2.9891003624519353E-31  -1.5885544812437376E-30  2.205456913164272E-31    5.998242373124028E-32    1.077683531085781E-32    -2.504689463438637E-34   6.078119920642175E-35    -1.2577764664853916E-35  -5.797107354605143E-38   -4.478271425209577E-38
4.4999999999999996E-5     -2.576959202457511E-31   9.532045528867014E-31    -4.168517758923255E-31   -3.495494751502533E-31   -5.160403536514729E-32   2.504014805230685E-32    -4.315467915125828E-34   2.110380891883219E-35    -6.816992026726215E-36   1.1173821023785108E-36   3.07227426814884E-39
4.6E-5                    -9.754744393740417E-31   1.4436798078359935E-30   2.0979955848454287E-30   -7.06551430520018E-31    -1.5412690631730743E-31  2.9083821137670128E-33   1.300922062873913E-34    -1.3991063176535312E-34  2.4543696164327265E-35   4.169645329277935E-37    1.1902634880718854E-37
4.7E-5                    -6.453932434046811E-31   -1.5738346038307974E-31  2.512764933708354E-30    -1.0154853498467962E-31  -6.609093575956702E-32   -4.1605805949826716E-32  9.32708965440428E-34     -7.886230587253912E-35   2.2173489168024228E-35   -2.6169144582878506E-36  1.202759817269123E-38
4.8E-5                    5.885204656460405E-31    -2.546143105520931E-30   -8.12125223815389E-31    1.0400147792836007E-30   1.8664398385667305E-31   -4.391085714181784E-32   5.575276854031046E-34    3.0362649351266753E-34   -4.174980084950144E-35   -1.7249585930605085E-36  -2.990166647513549E-37
4.9E-5                    1.389033419249746E-30    -2.434051480423961E-30   -4.373537141427734E-30   1.1857542709979102E-30   2.9424331565977895E-31   2.883561307920081E-32    -1.1863361695324992E-33  2.729595081598136E-34    -5.79056068758699E-35    5.5745804795523894E-36   -1.0411069921374586E-37
4.9999999999999996E-5     7.511362948302581E-31    1.3697716982207282E-30   -2.979182533527787E-30   -4.04653573175958E-31    6.731912199919514E-33    1.0125447782035651E-31   -1.997570698621923E-33   -5.828396318037323E-34   5.90294637116517E-35     5.685352896155538E-36    6.989985745612705E-37
5.1E-5                    -7.319385998470005E-31   5.200566388214668E-30    3.1343897149545733E-30   -2.168031541010105E-30   -4.456443399968805E-31   5.21673647935886E-32     2.1916196066982983E-34   -8.274962294177366E-34   1.294954028777647E-34    -1.0430614543452059E-35  4.8415129168817254E-37
5.2E-5                    -1.5151475208545963E-30  3.75538554541473E-30     7.061202793716131E-30    -1.623682206759066E-30   -4.7279355925818785E-31  -1.119630709679037E-31   3.391103837500077E-33    8.878144512365333E-34    -5.926520328383696E-35   -1.591750591114834E-35   -1.4634139764283388E-36
5.3E-5                    -8.830915127985131E-31   -3.1824010436362734E-30  3.019395595594606E-30    1.3641473224982202E-30   1.6444213352330515E-31   -1.9545930818529468E-31  2.677990590675171E-33    2.1468083207035497E-33   -2.5379252100959E-34     1.6107940754506238E-35   -1.7445393338335647E-36
5.4E-5                    3.4817136546530017E-31   -8.766948018058578E-30   -5.83774457062192E-30    3.612637084980388E-30    8.619079001665852E-31    -2.1832614152000877E-32  -2.5879573035824276E-33  -7.194830817472024E-34   4.597501198344723E-36    3.8622003193478274E-35   2.526191218902414E-36
5.4999999999999995E-5     9.677252340933588E-31    -5.829164628165678E-30   -9.918208894919347E-30   1.9852443631404633E-30   6.877372347042504E-31    2.7873824391316426E-31   -6.048665425976987E-33   -4.6398113045356424E-33  4.378715342700143E-34    -1.7356322953298693E-35  5.210129230547055E-36
5.6E-5                    7.834153420701903E-31    4.4269752655570566E-30   -3.81828546437108E-30    -2.476611407430225E-30   -4.621250587566519E-31   3.1585057373296464E-31   -1.9401779709310226E-33  -1.2555395292302697E-33  1.7152497382935007E-34   -8.21011390646875E-35    -2.7655633683229808E-36
5.6999999999999996E-5     5.687251398975293E-31    1.2288149689587438E-29   7.345402194720551E-30    -5.036686299022614E-30   -1.445023216076698E-30   -9.068148089621415E-32   5.873091057957545E-33    7.911829563838338E-33    -6.568529439299994E-34   8.328413630352909E-37    -1.3023866227599765E-35
5.8E-5                    7.509242567869978E-31    9.243886578714858E-30    1.302522326617209E-29    -2.483846570085752E-30   -9.73938768769754E-31    -5.473019146343767E-31   7.408122471719635E-33    7.16860615533378E-33     -5.679999389148631E-34   1.5426669612848551E-34   -1.9386568086674273E-36
5.9E-5                    5.805866375539505E-31    -2.8610426531886062E-30  7.516158554160267E-30    2.9405780407972692E-30   7.949720198984383E-31    -4.286596116285453E-31   -1.5686268559544615E-34  -9.25612582663755E-33    8.098328700773193E-34    6.019286981990158E-35    2.667470568777727E-35
5.9999999999999995E-5     -1.0252855256709275E-30  -1.3392462995409777E-29  -5.301781341975848E-30   5.80746821937589E-30     2.1157273705719843E-30   3.1172009365396433E-31   -7.754890315587469E-33   -1.8197147509910706E-32  1.2986085080349832E-33   -2.568672928903676E-34   2.1579450381715285E-35
6.1E-5                    -3.664147723092253E-30   -1.334456061439694E-29   -1.5727215925833748E-29  3.400840886924211E-30    1.4220649372969317E-30   8.85808378448574E-31     -5.936431213301041E-33   2.9147945784406552E-33   -6.334988358282358E-34   -2.139670798833075E-34   -4.1413422376484085E-35
6.2E-5                    -4.7439737511386544E-30  -3.355007263065607E-30   -1.5442630502635235E-29  -1.671982198002207E-30   -8.51119341145251E-31    5.032887876081025E-31    2.6827937666515944E-33   3.0687234327892383E-32   -2.374109543905667E-33   3.709703018953694E-34    -7.306107099698235E-35
6.3E-5                    -1.4407258552845783E-30  8.27978337268079E-30     -2.9848456149756995E-30  -4.8317394949913955E-30  -2.5684581972929588E-30  -5.878656645407248E-31   6.736825456868688E-33    1.6808724559449147E-32   -3.7113745402300974E-34  5.411139448916016E-34    3.394602444853909E-35
6.4E-5                    5.749568377156895E-30    1.394321276186203E-29    1.4518552192834308E-29   -4.300969795022371E-30   -2.0977173123113376E-30  -1.2139647521363346E-30  4.659800189814556E-34    -3.3279234056164674E-32  3.361300660092746E-33    -4.1868749809881095E-34  1.712067356206549E-34
6.5E-5                    1.1542712527996147E-29   1.2067932630743673E-29   2.4648903580359515E-29   -1.770956407843941E-30   8.223535339690426E-32    -5.770573104350484E-31   -8.396165783996643E-33   -4.7355956961443064E-32  2.6858755121373316E-33   -1.1533123309076248E-33  5.381480135594062E-35
6.599999999999999E-5      9.389175651949983E-30    5.325093280058056E-30    1.809301176084621E-29    7.5098290701171656E-31   2.1171417189096084E-30   7.668025856721686E-31    -5.513679398056551E-33   1.1511298407690905E-32   -3.0064195589405135E-33  1.793311369449374E-34    -2.9598917922621916E-34
6.7E-5                    -2.003722725487707E-30   -3.8486725805094786E-30  -3.0204567594497786E-30  3.0898911457375706E-30   2.7235297299905185E-30   1.4564670150442727E-30   1.3486935042433405E-32   7.036570953825613E-32    -5.805459202399253E-33   2.1226715667293466E-33   -3.152639589979612E-34
6.8E-5                    -1.5548336338059386E-29  -1.38582086395387E-29    -2.5054584353857643E-29  5.496896384682304E-30    1.936824422401518E-30    7.7059507650511E-31      2.973873650122778E-32    3.67504303650081E-32     -2.172538254144658E-34   8.331118178508746E-34    3.2935617340823714E-34
6.9E-5                    -2.0463892952388637E-29  -2.079411852540597E-29   -3.280221025686386E-29   6.41116989781403E-30     2.0408238855880093E-31   -6.689788787877943E-31   1.0953759108210681E-32   -5.746112562981589E-32   7.201728101396073E-33    -3.214384619426712E-33   8.182951254377307E-34
7.0E-5                    -1.1426462466656586E-29  -1.8112429019680057E-29  -2.0737683916166287E-29  3.2166335520614174E-30   -2.2655271484894065E-30  -1.5795292583251893E-30  -4.7255983157627454E-32  -8.441128134360256E-32   5.784900970516332E-33    -3.371211210444423E-33   1.6050256945155975E-36
7.099999999999999E-5      6.480725629244956E-30    -2.7242161606721517E-30  4.2696272283917706E-30   -4.31913235049157E-30    -4.652098552872016E-30   -1.1930313852996663E-30  -8.735173746942563E-32   -1.3897256576347073E-33  -3.663254391062539E-33   3.316002062583582E-33    -1.4371705110333589E-33
7.2E-5                    2.188068245040784E-29    1.871681973168803E-29    2.893683416392553E-29    -1.204755339939481E-29   -4.786861758054334E-30   1.9826402245231844E-31   -3.0786467377247203E-32  8.290785134271314E-32    -9.093111557641134E-33   7.834780452909086E-33    -1.0553514952447524E-33
7.3E-5                    2.592918956361939E-29    3.2614622962064236E-29   4.0888405720330944E-29   -1.3829125232185036E-29  -7.990123515939503E-31   1.546585983509837E-30    1.122035387402745E-31    6.378204561058708E-32    -3.8331540419623246E-33  3.0532570314594087E-35   1.627913238943794E-33
7.4E-5                    1.7344647221420493E-29   2.9598404959689395E-29   3.3060211796214546E-29   -6.597975579000257E-30   5.8300791745300044E-30   1.786034007083183E-30    1.960850756156955E-31    -1.713383569310516E-32   4.889631493833426E-33    -1.248284184241952E-32   2.9233536378725307E-33
7.5E-5                    5.499696823864194E-31    1.225965203121328E-29    6.754393797644485E-30    6.546371188916028E-30    9.87443673760686E-30     5.97736826517768E-31     7.30054655081579E-32     -5.394597661894511E-32   7.366174269392834E-33    -9.3902826661258E-33     -4.152810968962949E-34
7.599999999999999E-5      -1.8413464818014778E-29  -8.91611006833267E-30    -2.660194843929343E-29   1.810057761397509E-29    6.661811734669944E-30    -1.2134728724669366E-30  -1.991850523017655E-31   -3.6047377479833636E-32  3.862192236801969E-33    1.1563874758363208E-32   -4.829886735111759E-33
7.7E-5                    -3.3153900744165203E-29  -2.5574288087440566E-29  -4.9388936947761956E-29  2.1189781253607927E-29   -2.683485396462287E-30   -2.2061491922573256E-30  -3.4498141647418116E-31  -2.767305060884968E-32   -1.7815533064047834E-34  2.2814394541057652E-32   -2.9972845161505008E-33
7.8E-5                    -3.669029504690603E-29   -3.5696031651803307E-29  -4.8469503358335166E-29  1.3670012474823735E-29   -1.1135071994066043E-29  -1.518916073870731E-30   -1.493611088447255E-31   -2.5887016788205874E-32  -4.429443809139571E-33   2.1791172151633695E-33   4.811159083181383E-33
7.9E-5                    -2.424819537886857E-29   -3.965646787607979E-29   -2.4751285126905312E-29  -1.3489217326511306E-30  -1.1851320022406792E-29  2.95168108303086E-31     2.5796292432483582E-31   3.6232075409032835E-32   -9.798122390941285E-33   -2.900415916330712E-32   7.92451639743494E-33
7.999999999999999E-5      1.3491537853312113E-30   -3.5930742005837323E-29  7.523358423663699E-30    -1.769306982534943E-29   -4.437713696079822E-30   1.80567063510711E-30     4.807131293301811E-31    1.3311205980579807E-31   -9.192120586217488E-33   -2.7018080432389317E-32  -5.9543933458711164E-34
8.099999999999999E-5      2.811698152321619E-29    -2.1695848949011727E-29  3.1166231481090296E-29   -2.867126759620316E-29   5.1172228392000566E-30   2.0784441065513966E-30   2.664140034936587E-31    1.2230722744886021E-31   4.334232037542613E-33    1.3016672849447096E-32   -1.112985711299372E-32
8.2E-5                    4.1261080868121027E-29   4.3781166590192884E-30   3.685675605289203E-29    -2.909746240655728E-29   1.0331635475949193E-29   1.3118505900147018E-30   -2.05070506355985E-31    -5.179528742186796E-32   2.0266051592824142E-32   4.292606136332565E-32    -7.918609969777408E-33
8.3E-5                    3.301668796550948E-29    4.0053998148451774E-29   2.70822650696543E-29     -1.7363003446348908E-29  9.343033483320136E-30    1.4752883451883373E-31   -4.993711586991012E-31   -2.249883159469662E-31   1.7121105888996365E-32   2.257126224794485E-32    7.86879318967248E-33
8.4E-5                    7.516361127900717E-30    7.671585904865926E-29    1.2822391748139253E-29   2.8293863823016273E-30   4.558571650067072E-30    -1.183475111587992E-30   -3.7541453224710414E-31  -1.938846783707144E-31   -7.234320843966724E-33   -2.547296365957289E-32   1.6079618977965373E-32
8.499999999999999E-5      -2.2959593717081904E-29  9.683775814990999E-29    5.450025747163376E-30    2.3092383793477565E-29   -1.0155571700635969E-30  -2.6411077066738066E-30  -6.951126575293329E-35   1.6369167272868788E-32   -2.6291198968771775E-32  -4.4858351241174915E-32  3.7438119839162265E-33
8.599999999999999E-5      -4.695998163015781E-29   7.858408868095514E-29    6.857331109327166E-30    3.439602602691599E-29    -5.728426535869167E-30   -3.532424244577776E-30   2.7842521999844914E-31   1.8523097091480418E-31   -1.788129423525406E-32   -1.7045103120887275E-32  -1.5479041184098577E-32
8.7E-5                    -6.213204104048886E-29   9.624009606104973E-30    4.2037220286105006E-30   3.225981107544065E-29    -8.362351666696908E-30   -2.539565507269936E-30   2.99175749053846E-31     1.878118805390466E-31    5.6431660999223895E-33   2.240529183705475E-32    -1.7406604388255743E-32
8.8E-5                    -7.794082464586126E-29   -1.0112986472283053E-28  -2.3135868185669085E-29  1.8987832424244307E-29   -7.537236841474003E-30   9.53168918418529E-31     1.8919053543693308E-31   1.1585687552603486E-31   1.6721134807302246E-32   3.547014980509407E-32    1.4794499576549454E-33
8.9E-5                    -1.1027892595613782E-28  -2.2738181439269207E-28  -8.625862125508868E-29   9.342305511958594E-31    -3.3528033627112836E-30  5.560106086378436E-30    1.3938560429539697E-31   6.667349129601931E-32    1.2168015114638553E-32   2.12348726486263E-32     1.9568668404446405E-32
8.999999999999999E-5      -1.7018569449394697E-28  -3.4253660530094606E-28  -1.7444147981579148E-28  -1.7079169121785532E-29  1.2755839172986338E-30   8.178407850176685E-30    1.5439223323043496E-31   -3.5302534781533336E-32  1.008866844144877E-32    -1.746597928702119E-33   1.6944932014409566E-32
9.099999999999999E-5      -2.5494099808111437E-28  -4.334185332494636E-28   -2.625869571856779E-28   -3.5725861744858015E-29  2.6541152632432266E-30   5.984251979617236E-30    5.671264317015178E-32    -2.6539024162520502E-31  1.1245200098643561E-32   -2.364121368901489E-32   -2.6175915355133046E-33
9.2E-5                    -3.4949584469807736E-28  -5.002616423915715E-28   -3.335865871713766E-28   -6.035333281346797E-29   1.6522809666120507E-31   -1.1923287513234232E-30  -2.753230828892352E-31   -4.43735354460606E-31    -5.262962783688252E-33   -3.605835229793515E-32   -1.9255916407547017E-32
9.3E-5                    -4.365698686271629E-28   -5.493224072428214E-28   -3.929936495309351E-28   -9.598326770738156E-29   -2.816929895978243E-30   -9.866126938684517E-30   -7.010405674649029E-31   -2.7375977052383435E-31  -3.766217593317906E-32   -2.131241571258531E-32   -1.8948255121666338E-32
9.4E-5                    -5.052630707332613E-28   -5.887244003932081E-28   -4.599675938697437E-28   -1.4214795878877294E-28  -2.5671219515452377E-30  -1.442979905912944E-29   -8.75921506137291E-31    2.290280147997264E-31    -4.4632764838274923E-32  2.0232107157909492E-32   -3.314980615063458E-33
9.499999999999999E-5      -5.518152596619725E-28   -6.277751282655978E-28   -5.441208258498842E-28   -1.9197540494678555E-28  7.397241320932199E-31    -1.0850146933849513E-29  -5.453836393523916E-31   6.367371620166618E-31    -4.293370276324151E-34   4.6333003021230747E-32   1.5984640182266218E-32
9.6E-5                    -5.765145299109379E-28   -6.73595127253238E-28    -6.335202400706499E-28   -2.366772380547241E-28   2.7495843240683498E-30   -9.124585008569451E-32   2.0376475154366427E-31   5.592676593054182E-31    5.381406683309415E-32    1.7587863047813285E-32   2.5414285559095274E-32
9.7E-5                    -5.8293659714895615E-28  -7.254835358490787E-28   -7.064403290585589E-28   -2.7208623045778866E-28  -1.627244068515259E-30   1.1839595172724253E-29   9.867653972203491E-31    8.255877784444684E-32    5.316450715358855E-32    -3.36504001967877E-32    1.5767983940818426E-32