% Model:              analysis.mph
% Version:            COMSOL 6.0.0.405
% Date:               Jul 10 2023, 13:21
% Dimension:          1
% Nodes:              10001
% Expressions:        11
% Description:        Point graph
% Time (s)                Displacement field, Y component Displacement field, Y component Displacement field, Y component Displacement field, Y component Displacement field, Y component Displacement field, Y component Displacement field, Y component Displacement field, Y component Displacement field, Y component Displacement field, Y component Displacement field, Y component
0                         0                        0                        0                        0                        0                        0                        0                        0                        0                        0                        0
1.0E-6                    -4.8413729424257637E-48  -1.4365367936167968E-46  -2.7514990635289888E-45  -3.725665629942692E-44   -3.8778442216955326E-43  -2.1217290354781363E-43  -1.2086365515605792E-43  -1.183603605931448E-44   -1.2573799818798816E-44  7.31265958820633E-46     -1.5550646947168122E-45
2.0E-6                    4.867768640436034E-47    1.1693516648787013E-45   2.6637077919222095E-44   3.0436912377401914E-43   4.212464304431536E-42    1.810691198343044E-42    8.299490554469174E-43    1.3837482218428002E-43   1.420169576356897E-43    -6.466818466235058E-45   1.1651365167405203E-44
3.0E-6                    -6.019934054589315E-46   -8.891616237110716E-45   -1.770634667243858E-43   -1.5611798556914658E-42  -1.8545238251168327E-41  -5.020694137487381E-42   -1.39233090548901E-42    -1.0715451215959469E-42  -1.087386455197162E-42   -8.688576957309588E-44   -3.9841757572580905E-44
4.0E-6                    4.132175592227786E-45    5.277802414668423E-44    7.19530756793644E-43     3.876701195030798E-42    1.954035068205388E-41    -3.611107910286461E-42   -2.7431819661521962E-42  4.8198842803575564E-42   4.986664429299998E-42    1.0342943719769569E-42   8.954544756776066E-44
4.9999999999999996E-6     -1.677890937742326E-44   -1.627409794390192E-43   -1.0672125972392062E-42  2.121239758358775E-42    1.1118286791115492E-40   4.480716201644437E-41    6.66475853549657E-42     -1.3731090484172117E-41  -1.379327179451321E-41   -4.5325466854767654E-42  -1.475388856952356E-43
6.0E-6                    2.89831017299547E-44     -5.782463627036838E-45   -3.8534193668347433E-42  -3.101338615258963E-41   -3.7603895253459885E-40  -5.717126801314099E-41   5.252204080601366E-42    1.4492029830786434E-41   9.185679796143968E-42    6.789461902259347E-42    -2.762245940356411E-43
7.0E-6                    4.985283907957133E-44    1.4293725535485616E-42   1.7584676227958605E-41   4.402802903047148E-41    -5.459166946185098E-41   -1.5091714454638143E-40  1.2901204088819497E-41   6.126667428041176E-41    7.622368599872176E-41    1.7707210058953645E-41   2.229252623163296E-42
8.0E-6                    -3.3712864931220974E-43  -2.8198533193015488E-42  -5.7240498846061784E-42  3.6700552214950473E-41   2.06611424960125E-39     4.416535700378955E-40    -6.743478477722697E-41   -2.5795243021167625E-40  -2.2802508975525696E-40  -8.961633355989261E-41   -3.2612758116006185E-42
9.0E-6                    4.346585186795582E-43    -3.419303211942691E-42   -8.701717868520503E-41   -2.1738057015424876E-40  -1.5226901998671624E-39  3.460003046259134E-40    -1.1815320625331016E-40  1.817612799001822E-40    3.6594733175606397E-41   7.070262213317581E-41    -5.7080680458947546E-42
9.999999999999999E-6      9.43566913925727E-43     1.8567201899461288E-41   1.2072150011453362E-40   3.94214992577013E-40     -8.117997841290134E-39   -2.0533480672693177E-39  3.662947256242515E-40    8.477678739408224E-40    8.235460508444084E-40    3.577310486131757E-40    2.7076200597548433E-41
1.1E-5                    -3.4865154551156064E-42  -7.812165553212259E-42   2.596066708755957E-40    4.985371933193092E-40    8.77585848400455E-39     -9.36067606014594E-40    2.5927889649761365E-40   -1.5922709006753627E-39  -9.950621545803967E-40   -8.087151239938298E-40   -1.2213993019568837E-41
1.2E-5                    7.816790927666279E-43    -7.064809198862325E-41   -6.84355797660542E-40    -2.764019994115097E-39   2.7932232392002237E-38   7.462383236682569E-39    -9.83720888187883E-40    -7.1324747372504145E-40  -1.212909515491946E-39   -7.1130942545072625E-40  -1.3746736845897244E-40
1.3E-5                    1.2599990144342945E-41   9.965746035805057E-41    -5.021171387205963E-40   -8.024410608180492E-40   -2.9818888107665E-38     4.1102937927032E-39      3.3708213105793025E-40   3.16768580973237E-39     2.2981500655130494E-39   3.870867864345024E-39    1.5041717640019674E-40
1.4E-5                    -1.610965353565311E-41   2.0063219394213747E-40   2.8074888145119807E-39   1.0296444590132215E-38   -8.734256153798754E-38   -2.1797129774320257E-38  1.3453628761942232E-39   -3.0871488268909123E-39  8.273607608225198E-40    1.9336683381828292E-40   6.397798949679659E-40
1.4999999999999999E-5     -2.751266359825959E-41   -4.872168766949578E-40   3.89603304537588E-40     1.3993696251559361E-39   7.325893632400293E-38    -1.8044034703711477E-38  -4.9762214971892285E-39  7.606770886127311E-39    4.785176656312869E-39    -1.370747383987648E-38   -5.9087183926349186E-40
1.6E-5                    7.596230167227203E-41    -4.607500421492581E-40   -9.902641325298786E-39   -2.6847256907517496E-38  2.4464018442821152E-37   5.084231859468136E-38    -7.487698004676202E-40   1.1033783065676182E-38   -9.571100132887512E-39   4.2693101911490065E-39   -2.752669834522881E-39
1.7E-5                    2.667230918668049E-41    1.6862118729897047E-39   1.5172710745888868E-39   -6.822626511811139E-40   -1.3789837903426683E-37  6.213680741082305E-38    2.2208324183102927E-38   -7.369243637137751E-38   -5.90666478488128E-38    4.194490507547776E-38    9.37689062547585E-40
1.8E-5                    -2.521706296680952E-40   7.189692978978164E-40    3.192477477906873E-38    5.960407561995551E-38    -6.1781358429900485E-37  -9.551515609210797E-38   2.9341689203658588E-39   6.790145614966422E-40    8.7448099329569E-38      -2.082764651450665E-38   9.98009614224016E-39
1.8999999999999998E-5     6.388282608441139E-41    -4.7798416208225176E-39  -8.214313430218814E-39   -7.79222324804142E-39    1.9533373641464838E-37   -1.7230116840860095E-37  -6.484753595967699E-38   2.891128293039954E-37    2.9979589504486385E-37   -1.1961639198055624E-37  2.8266564119191484E-39
1.9999999999999998E-5     6.9702575505953155E-40   6.403996773045759E-40    -9.64919689674894E-38    -1.505505796163556E-37   1.4664218645513104E-36   1.4693283305015464E-37   -2.1964134530046886E-38  -1.6710763645440355E-37  -4.430403176454495E-37   6.977084115627413E-38    -2.8760163981007714E-38
2.1E-5                    -3.589018332281604E-40   1.310791559616255E-38    2.1580166874996894E-38   -2.2595010922322504E-38  -9.429290984776694E-38   4.242258481652912E-37    1.4088118175050891E-37   -8.354580396186453E-37   -1.1965428696190331E-36  3.321802780476302E-37    -2.536718572544715E-38
2.2E-5                    -1.606684225193337E-39   -1.0949534942756359E-38  2.7660947835566027E-37   4.06787406355719E-37     -3.3788602298940966E-36  -1.5620574786438037E-37  7.024777256577479E-38    1.0143376637613243E-36   1.5830064732190335E-36   -1.8826164592484274E-37  6.458833164130675E-38
2.3E-5                    7.88719152757023E-40     -4.2162921012774986E-38  -2.1000348254627868E-38  4.403496057077417E-37    -9.176103491028034E-37   -9.955536234096229E-37   -2.6066404270412555E-37  2.2401967263946287E-36   4.216255754143021E-36    -9.064640106666854E-37   1.0151354781231879E-37
2.4E-5                    2.406191952314056E-39    4.707225850256063E-38    -7.493696330362061E-37   -7.380091812521044E-37   7.270766394584832E-36    -1.5338971618805251E-37  -1.1234146070225157E-37  -4.030152549576113E-36   -4.268014940547183E-36   3.7776241010922805E-37   -1.1238815841430125E-37
2.4999999999999998E-5     -9.118777375749671E-40   1.5280309622606935E-37   -1.2922150935134986E-37  -2.176204381821621E-36   5.466165413697955E-36    2.0977234878724386E-36   5.571132765720681E-37    -6.519256558322011E-36   -1.3398057993735387E-35  2.341090643518048E-36    -3.016640853283516E-37
2.6E-5                    2.0143688897682142E-39   -1.087247138745422E-37   1.8763956728849345E-36   -5.031079391188999E-38   -1.2850572803814708E-35  1.7305306454573005E-36   8.813506717540248E-38    1.2016111501656017E-35   8.279744310794555E-36    -3.6801714321118384E-37  1.3561981899755318E-37
2.7E-5                    3.2120736881731115E-39   -5.052748718514045E-37   9.621224002827083E-37    6.254692237440563E-36    -1.927423608519445E-35   -3.1461742674193476E-36  -1.624593467807278E-36   2.0154764138866034E-35   3.806739665128992E-35    -5.369580732107498E-36   7.78615432021763E-37
2.8E-5                    -3.0194079633254624E-38  4.892254566617969E-38    -4.1837373015658914E-36  5.180976733792223E-36    1.342316638112744E-35    -6.121384958835833E-36   -4.415685061367043E-37   -2.7164715022927995E-35  -7.375561317395677E-36   -7.77992840680141E-37    4.904556219724073E-38
2.9E-5                    -3.1503028868656314E-38  1.3251012214108626E-36   -4.052566615352406E-36   -1.2471240300732166E-35  4.7249853312549813E-35   8.218465349902551E-37    4.678049223430436E-36    -5.880926242586139E-35   -9.463531772599717E-35   1.0347715783231123E-35   -1.789684464004954E-36
2.9999999999999997E-5     1.2036025852670571E-37   6.749893331301966E-37    7.814571753449769E-36    -2.0117392179806652E-35  1.0625975483715152E-35   1.2383810166166715E-35   3.602692809982513E-36    4.284387806854984E-35    -2.3775461311706329E-35  4.566137611890611E-36    -1.1648048942123472E-36
3.1E-5                    1.8184011101728164E-37   -2.5073899382935558E-36  1.3083864829216275E-35   1.8925879391250956E-35   -7.602668264251684E-35   1.0703211150867743E-35   -9.927578676652815E-36   1.4974640282128716E-34   1.978453900691384E-34    -1.6310765101715387E-35  3.200758783968335E-36
3.2E-5                    -3.005075110299887E-37   -3.023928487416514E-36   -1.0337495784501938E-35  5.594490459535172E-35    -8.154769367422748E-35   -1.0578876663135629E-35  -1.494702307907867E-35   -2.4821242717785863E-35  1.4935254240127016E-34   -1.1768627255386208E-35  4.8138084048961875E-36
3.2999999999999996E-5     -7.060506512675256E-37   2.7472177935900033E-36   -3.440681221576991E-35   -1.7288111143066318E-35  5.206607324611272E-35    -2.926514307162046E-35   1.2098069262552482E-35   -3.194745238967538E-34   -3.2074134766899033E-34  2.1236621767177884E-35   -2.7466042403751594E-36
3.4E-5                    4.682011632427768E-37    7.30022349913221E-36     9.920059532895103E-37    -1.3769970346928605E-34  1.7183182263863409E-34   -1.5588244491737647E-35  3.8743366292837496E-35   -1.1413060596701677E-34  -4.695258798361595E-34   2.1568324911435638E-35   -1.1754828520987263E-35
3.5E-5                    2.0970863638781184E-36   8.739215611641565E-37    7.244294231088257E-35    -3.642499309343438E-35   8.52467782657366E-35     2.738505225855031E-35    2.1775375347710832E-36   5.449298310225598E-34    3.1628473463686088E-34   -2.2542782725372337E-35  -5.3731751444357655E-36
3.6E-5                    -1.1370613445141718E-37  -1.0474361360144433E-35  4.774921644165922E-35    2.838278035521567E-34    -1.521628115612208E-34   5.615098650806014E-35    -6.833717799939188E-35   5.1382144062536935E-34   1.0234993591844378E-33   -3.2242912726137134E-35  1.6211960184027783E-35
3.7E-5                    -5.1489346477191914E-36  -1.0488158702434219E-35  -1.095361302957791E-34   2.6687697650899826E-34   -2.640834381744122E-34   2.93643746742119E-35     -4.644170214189473E-35   -6.622822354885966E-34   1.1734777207539755E-34   1.1430247821205121E-35   2.5199468289916345E-35
3.7999999999999995E-5     -2.36983629789999E-36    3.832783215387687E-36    -1.7523892964341138E-34  -3.912981664969033E-34   -9.426543084842418E-35   -4.297035711915463E-35   8.159409108336795E-35    -1.269849940880412E-33   -1.5689431127620845E-33  2.9070022169695755E-35   -2.2696847376265984E-36
3.9E-5                    1.0686791188174454E-35   2.029394285701062E-35    6.805712926716553E-35    -8.144258845138145E-34   2.0416996065926315E-34   -9.798159719065265E-35   1.189037052546057E-34    3.0782418483691866E-34   -1.2314529767066854E-33  2.458837334339142E-35    -4.386176161089742E-35
3.9999999999999996E-5     1.1405788631658952E-35   2.3746068968617667E-35   3.7508067164594935E-34   8.552487026534366E-35    3.567482127023298E-34    -7.257432157456016E-35   -5.248768233743104E-35   2.201867072707718E-33    1.4511418268225408E-33   5.31172562262701E-35     -4.1296618390112257E-35
4.1E-5                    -1.7001021646581155E-35  -6.635116107892733E-36   1.949464313339127E-34    1.4947067333433831E-33   2.3012672671650847E-34   3.456805438754222E-35    -1.9800704569335505E-34  9.2796243985376E-34      2.7235756699260905E-33   -2.2585055821628765E-35  2.539419829174643E-35
4.2E-5                    -3.5867066013102157E-35  -6.955511410813668E-35   -4.726843046371485E-34   1.1000358635431396E-33   -1.1512859882454973E-34  1.4740494672012286E-34   -3.3673491826396295E-35  -2.6475134163873096E-33  -3.293963029849745E-36   -2.9042324586794273E-34  8.62464328832495E-35
4.2999999999999995E-5     1.1068067820947675E-35   -7.466841228403066E-35   -7.3929905412226E-34     -1.405384924704325E-33   -4.7948506893256E-34     1.6445026140235175E-34   2.532371351830197E-34    -3.0344423660332535E-33  -3.427102823228611E-33   -2.908230445589193E-34   5.062412696365277E-35
4.4E-5                    8.138914846243086E-35    8.210896297170677E-35    8.620986736943855E-35    -2.8565670356139547E-33  -5.74972521963995E-34    4.20451445065589E-35     1.8154599678084315E-34   1.6639888342773674E-33   -2.4617177059680173E-33  4.429107703711038E-34    -6.042981486200375E-35
4.4999999999999996E-5     4.173967009616564E-35    2.5584760144538366E-34   1.2126306887441415E-33   -5.902568334939713E-34   -1.9946733744473236E-34  -1.5861905352725502E-34  -2.4641180499965777E-34  5.138992656697281E-33    2.0229528352597962E-33   1.1612868118151795E-33   -1.1639725414829021E-34
4.6E-5                    -1.1839240601925587E-34  7.391848501499403E-35    1.0035888142583396E-33   3.2425320474271146E-33   4.969713086693553E-34    -2.9910820875558984E-34  -3.938255958172134E-34   1.242918156146296E-33    4.0027631949700156E-33   3.662758684056412E-34    -5.285284508675679E-35
4.7E-5                    -1.74596849915223E-34    -4.471907190581847E-34   -7.610164446550571E-34   3.849557904960744E-33    1.0116632813606188E-33   -2.4778006394927633E-34  9.304362322438239E-35    -5.6875800943486354E-33  1.1324827858684734E-33   -1.790872944406609E-33   3.9091088414445227E-35
4.8E-5                    4.7902019921696385E-35   -5.500902493035111E-34   -2.0766184419592606E-33  -2.727164899544656E-35   8.737992599797162E-34    2.2939029045761355E-35   5.9938644233329306E-34   -5.4745300783567586E-33  -2.20126662700848E-33    -2.666713937506068E-33   7.586844157333365E-35
4.9E-5                    3.2257653647394524E-34   3.0273281535813596E-34   -1.043636095919572E-33   -4.488521922265232E-33   1.6516825201412077E-35   3.7408335589648785E-34   2.9947457790685624E-34   3.082571212256069E-33    -2.5203727385697638E-33  -5.250173862249221E-35   1.1833710701886873E-34
4.9999999999999996E-5     2.2392056888172098E-34   1.1952814834876804E-33   1.4483433594212122E-33   -5.075008303758188E-33   -1.172310255311404E-33   5.40964708912337E-34     -5.570869683692092E-34   9.01115813824863E-33     -2.216287553762149E-33   4.2179491929993235E-33   1.9192515739414147E-34
5.1E-5                    -2.484984025561957E-34   5.931809882728299E-34    2.5837278053734526E-33   -9.620731182880977E-34   -1.9690352815934307E-33  3.1713955649615625E-34   -7.998481647419374E-34   3.5513187584072314E-33   -2.55757098434922E-33    4.975877968430835E-33    9.374497124908271E-35
5.2E-5                    -5.369534214197237E-34   -1.2165040512415562E-33  1.1969585915383146E-33   5.020552550251448E-33    -1.546190989608694E-33   -2.278568491291541E-34   3.2306700234532837E-35   -7.679358417086393E-33   1.6710181831016733E-33   -5.76007606709465E-34    -3.3778279154761165E-34
5.3E-5                    -2.1609444315340944E-34  -1.882778710809119E-33   -9.478438483372513E-34   8.038333892970504E-33    4.051841813943835E-34    -7.307916634412616E-34   8.973030762082304E-34    -1.1447707155899721E-32  1.1507891386273349E-32   -7.808924250574434E-33   -7.740452193329623E-34
5.4E-5                    4.053465109070799E-34    -1.8411773797357163E-34  -2.0237179858682528E-33  3.81558283440154E-33     2.90543856706753E-33     -8.071885473005365E-34   6.294322196190244E-34    -2.8769975640100652E-33  1.3118870725052515E-32   -7.731584881845861E-33   -5.525610896352192E-34
5.4999999999999995E-5     6.4419088151152254E-34   1.8947810835511493E-33   -2.4963500427332645E-33  -6.212974167720274E-33   3.868728249207896E-33    -3.765665871053438E-34   -4.083994734870017E-34   9.928234698103508E-33    -6.682350828449759E-33   2.1134152323404803E-33   5.280786973631776E-34
5.6E-5                    2.8180239894262826E-34   1.8698991085085168E-33   -2.8565844930798756E-33  -1.2309693512173553E-32  1.7702793000152527E-33   2.8667988110892515E-34   -8.482728219246083E-34   1.562516448143165E-32    -3.2745817489210704E-32  1.1543232803516015E-32   1.701670838191059E-33
5.6999999999999996E-5     -2.399438008399922E-34   2.7875088421037975E-34   -7.163029054263068E-34   -5.1825628503331925E-33  -2.531443177790384E-33   7.939652155288685E-34    -2.3961350651270747E-34  9.178169150209397E-33    -2.8197259056263035E-32  8.058334958040413E-33    1.7094012674339352E-33
5.8E-5                    -4.574020916799152E-34   -7.369878221106626E-34   5.9352461123312876E-33   9.8194911674807E-33      -5.864196463053683E-33   8.880803076221538E-34    4.179855832539016E-34    -7.087801308439908E-33   1.8382863115471076E-32   -5.836084602937325E-33   -4.125324927333138E-35
5.9E-5                    -4.68286645952669E-34    -1.2430556951547133E-33  1.2143891468507786E-32   1.414138896246472E-32    -5.106760629626514E-33   5.065926279876054E-34    1.1994252999360467E-34   -2.4370384332624175E-32  6.439928282398177E-32    -1.2548999353562273E-32  -2.557216345069173E-33
5.9999999999999995E-5     -6.464026431394952E-34   -2.6559174806299657E-33  7.733528504763417E-33    -1.131219011436022E-33   -3.9043603666755783E-35  -2.3734810934245023E-34  -7.843327057757018E-34   -2.7634209752798025E-32  5.114312304099226E-32    -1.5271455295641992E-33  -3.609956849037798E-33
6.1E-5                    -7.25850205690203E-34    -3.4196013346613685E-33  -9.737322997025716E-33   -1.864123421473114E-32   5.7564991142854516E-33   -1.0452400610429474E-33  -8.469016173042622E-34   -5.713696496400606E-33   -2.745484339539786E-32   1.4056344403658204E-32   -1.6969822183577042E-33
6.2E-5                    3.88023746810795E-34     2.0009821642063014E-34   -2.618379693824871E-32   -1.2320786085865265E-32  7.174160709873227E-33    -1.4977231842324232E-33  9.058702111923561E-34    3.02730580449809E-32     -1.0465425021366234E-31  1.126082546605794E-32    1.9875296465198367E-33
6.3E-5                    2.9671448910797078E-33   7.380711888088828E-33    -2.2042130475157687E-32  1.7449485871664166E-32   1.9582182858734926E-33   -1.3039787753902493E-33  3.251840912769749E-33    4.815022559785575E-32    -9.759290496043029E-32   -1.2552859621364517E-32  4.308439351209696E-33
6.4E-5                    4.4662532636269765E-33   1.0571768702567809E-32   5.4755905299207524E-33   3.763624252460403E-32    -6.333550086756334E-33   -5.9044219020700186E-34  2.7942170836502867E-33   2.8303771004006504E-32   1.082974368320499E-32    -3.1793343190225193E-32  3.609128679522147E-33
6.5E-5                    9.716664428745209E-34    3.487302850458819E-33    3.5587380520641095E-32   1.8452863533942033E-32   -1.0365771527561469E-32  4.403923684092052E-35    -2.846487714695001E-33   -1.0836936433664028E-32  1.4238658581487706E-31   -1.9335793242760525E-32  1.4901556232533124E-33
6.599999999999999E-5      -7.255676338087453E-33   -1.0223588537190323E-32  4.285717232595042E-32    -3.0643842572406894E-32  -5.4424063255191454E-33  -1.8445324822547916E-34  -1.1099525538629119E-32  -3.7931368799463873E-32  1.8039707415773353E-31   2.1775413591157098E-32   4.4370318407099603E-35
6.7E-5                    -1.254311019114324E-32   -1.913831213351517E-32   2.0204537069180136E-32   -6.742065937482622E-32   5.596698285014018E-33    -1.7233833514988002E-33  -1.5155915067628443E-32  -5.150641145404753E-32   7.058880594429963E-32    5.723064290673488E-32    -1.5367363599974992E-33
6.8E-5                    -5.822825399106742E-33   -1.4575285094579903E-32  -1.8884904964844115E-32  -5.617816154078892E-32   1.4345413549047043E-32   -4.183882544297486E-33   -1.0172466707068356E-32  -7.093712028792936E-32   -1.2441788651828662E-31  5.201489403840361E-32    -5.279447699696074E-33
6.9E-5                    1.1825639628877517E-32   2.3100798717696423E-33   -5.4379761348662E-32     2.1027774071778206E-33   1.367211957700917E-32    -6.246181970635995E-33   1.727448664734634E-33    -8.531811299043761E-32   -2.7060707775714602E-31  1.628727828430953E-33    -9.658135450732018E-33
7.0E-5                    2.550858790693604E-32    2.2180559792950707E-32   -6.813005749368055E-32   7.130842246160532E-32    2.1536788769770228E-33   -6.257725562415653E-33   1.3476091828617997E-32   -4.658039635278382E-32   -2.6515393620661638E-31  -6.297004930160774E-32   -9.444537644076074E-33
7.099999999999999E-5      1.8263704788366744E-32   3.3264168052877876E-32   -4.4623197496808254E-32  1.0506862883532376E-31   -1.711040401260546E-32   -3.292880990444071E-33   1.911928593289483E-32    6.595288939336503E-32    -1.0373665799247916E-31  -9.666131419878028E-32   -1.5192327993086904E-33
7.2E-5                    -1.0892390650111347E-32  2.606722700299292E-32    1.863076026648292E-32    7.710648858276271E-32    -3.891086166884012E-32   2.0455061948175078E-33   1.6784031375639377E-32   1.9331899677982459E-31   1.3000220406647194E-31   -7.109027449614108E-32   1.0995641918068968E-32
7.3E-5                    -4.050953048421634E-32   -2.346100079757436E-33   9.355014818793666E-32    -8.109404406504482E-34   -5.535219603395888E-32   7.641146407491804E-33    6.741143657909188E-33    2.3141564964768013E-31   3.2160547218129028E-31   1.7806913073413818E-33   2.1108150812923E-32
7.4E-5                    -4.144024688495673E-32   -4.2709230024217153E-32  1.2734397692662448E-31   -8.740061433615201E-32   -5.549716828851336E-32   1.0685115554426084E-32   -1.1345695366218744E-32  1.1529914438709443E-31   3.824148135464597E-31    7.071673469408751E-32    2.2450118872842682E-32
7.5E-5                    -3.8955586232925576E-33  -7.106371784070275E-32   8.301774060003035E-32    -1.4050768853221937E-31  -3.0784648507752166E-32  8.990690366804436E-33    -3.85451844809104E-32    -1.3354169929655898E-31  2.8145539437343E-31      8.142724389317632E-32    1.1487411958487656E-32
7.599999999999999E-5      4.70875752286341E-32     -5.887550910020064E-32   -2.3413616156772864E-32  -1.3955286816039919E-31  1.6032463580523253E-32   2.3698573515881972E-33   -7.483466658416299E-32   -4.257860609171097E-31   4.3269367906515925E-32   2.636914471964818E-32    -1.0388781446078696E-32
7.7E-5                    6.799316531019678E-32    3.426347183187156E-33    -1.316157507263359E-31   -8.828385114173686E-32   6.775687970662018E-32    -6.697373447446976E-33   -1.1789833986692528E-31  -6.564389154495395E-31   -2.8212727108661925E-31  -4.2947764823983646E-32  -3.4440593628471965E-32
7.8E-5                    3.634543696514375E-32    8.777308084049151E-32    -1.8174723760368388E-31  -1.0177998136815419E-32  1.0035222101187676E-31   -1.3881155024108458E-32  -1.6341107437683578E-31  -7.569991524277354E-31   -6.45681012051303E-31    -6.348225501920161E-32   -4.7931025479817254E-32
7.9E-5                    -2.543542381401032E-32   1.3829119329262624E-31   -1.4982526723333219E-31  5.68261810814785E-32     9.575738592442368E-32    -1.510115572286775E-32   -2.049130758966693E-31   -7.29216664926012E-31    -9.933747622902553E-31   -2.144346514998224E-32   -4.395533585258674E-32
7.999999999999999E-5      -7.045193557188248E-32   1.0939100391236887E-31   -5.228066135724581E-32   7.86645698318427E-32     5.07803422736541E-32     -8.573315014473456E-33   -2.3172618277948885E-31  -6.3959482298931165E-31  -1.243598153278502E-30   3.541322026934647E-32    -2.6503253034611067E-32
8.099999999999999E-5      -7.078752285441959E-32   2.016693213384939E-33    6.674845663520387E-32    5.18986947272292E-32     -2.1912451374144043E-32  4.3917738462505145E-33   -2.276665252875211E-31   -5.652544190381919E-31   -1.2944549374297016E-30  3.1052083737852316E-32   -3.8860576487417955E-33
8.2E-5                    -3.522155820135892E-32   -1.3174831607805937E-31  1.5479547662254252E-31   4.942809145963632E-33    -9.939287913336177E-32   1.9951824840971866E-32   -1.7557876422830666E-31  -5.259764683756331E-31   -1.078797748356926E-30   -1.0853182906449502E-31  1.909036529444798E-32
8.3E-5                    1.204132763150135E-32    -2.1770645702338416E-31  1.7758307363847926E-31   -3.800948370913553E-32   -1.5777614363604977E-31  3.3153142556204926E-32   -6.774245972076407E-32   -4.656446456350517E-31   -6.265295045654176E-31   -4.360328144895043E-31   3.924340631741764E-32
8.4E-5                    5.562772819564988E-32    -2.020983523123934E-31   1.3670773968458888E-31   -9.012778027179766E-32   -1.8092260671021214E-31  3.9682231615675757E-32   8.478287380151378E-32    -3.066679605226814E-31   -7.244728900776585E-32   -9.415492504515613E-31   5.071622652453347E-32
8.499999999999999E-5      8.723436622794947E-32    -8.381478902953687E-32   5.446569946331378E-32    -1.912830812191508E-31   -1.6312136352048977E-31  3.7226932912074336E-32   2.50846286751646E-31     -2.7567463720120703E-32  4.0934837709411626E-31   -1.505895472214997E-30   4.93665871906061E-32
8.599999999999999E-5      9.373002131067234E-32    8.343429375651709E-32    -6.064069919465344E-32   -3.6425393894148978E-31  -1.0483731221519537E-31  2.5709446255079246E-32   3.8677008573448543E-31   3.0235469087902033E-31   6.949640239940489E-31    -1.92432503900956E-30    3.797154351746955E-32
8.7E-5                    6.101380356854599E-32    2.235442454123801E-31    -2.2017706460966982E-31  -5.776934124369648E-31   -8.471310669563211E-33   6.536814411651332E-33    4.486866915231756E-31    5.408388605838382E-31    7.5069940096429945E-31   -2.016234647824605E-30   1.860738657884006E-32
8.8E-5                    -1.1919383919910365E-32  2.806957025915062E-31    -4.204882802100708E-31   -7.428025327108043E-31   1.1872435906435844E-31   -1.81271989758569E-32    4.036337887979576E-31    5.107651185571103E-31    5.992851323968452E-31    -1.7227669684826494E-30  -1.8458478404061865E-32
8.9E-5                    -1.0770171708232414E-31  2.3748706721902754E-31   -6.155579440129226E-31   -7.543672922413197E-31   2.577862479988653E-31    -4.5532499646036364E-32  2.328442072985014E-31    4.5530392850985105E-32   2.5460451500785046E-31   -1.1079201577378987E-30  -8.693685116496445E-32
8.999999999999999E-5      -1.9360147934047117E-31  1.0533627226776497E-31   -7.431839366394041E-31   -5.6488596266169355E-31  3.7843967689098592E-31   -7.241836403628351E-32   -7.542536594942594E-32   -9.58345899849432E-31    -3.229416423486708E-31   -3.0910718109427803E-31  -1.8023488323926205E-31
9.099999999999999E-5      -2.255530457100206E-31   -8.585450754826237E-32   -7.760208909468729E-31   -2.3604287641023083E-31  4.520449372065922E-31    -9.538256404169414E-32   -5.362463739695936E-31   -2.515166417956372E-30   -1.2362682811369436E-30  4.73760123916505E-31     -2.612742696480219E-31
9.2E-5                    -1.6202116344766322E-31  -2.9173352173523034E-31  -7.314689282084871E-31   9.614035759921542E-32    4.6881975619113705E-31   -1.1118249445907301E-31  -1.1679919197747701E-30  -4.587518715967446E-30   -2.6323587078025072E-30  9.672917777032009E-31    -2.8420033423450666E-31
9.3E-5                    6.68346705178273E-33     -4.731886175046627E-31   -6.2964585221778076E-31  3.2457929934429286E-31   4.4511813122546555E-31   -1.166492044664665E-31   -1.9763666592833975E-30  -7.150269657676987E-30   -4.650882497195485E-30   8.783710949488372E-31    -2.2877189904711716E-31
9.4E-5                    2.349639080089161E-31    -6.260915318439316E-31   -4.595052206222402E-31   4.4243880503348605E-31   4.1336797810202155E-31   -1.0854672757953076E-31  -2.9327663877722782E-30  -1.019157976665407E-29   -7.350100948880356E-30   1.2985979481383047E-32   -1.1580379702014416E-31
9.499999999999999E-5      4.295913557699707E-31    -7.739297471078326E-31   -1.9997513278913715E-31  5.210229444249735E-31    3.994186947791356E-31    -8.377878234387243E-32   -3.962785310268908E-30   -1.3625582409499338E-29  -1.0653240861763756E-29  -1.6464063942499892E-30  6.330878461073301E-33
9.6E-5                    4.857661376648084E-31    -9.122352932822658E-31   1.3411226118123644E-31   6.409516524089583E-31    4.007726656206519E-31    -3.9928077918083396E-32  -4.9501696701274104E-30  -1.7203448761270684E-29  -1.4347782440818412E-29  -3.9811212777430836E-30  8.972892151408085E-32
9.7E-5                    3.323466799432314E-31    -9.722893736126973E-31   4.8506090841579205E-31   8.475070474988698E-31    3.8040881081362134E-31   2.3972517463631806E-32   -5.7490297869041526E-30  -2.0528309947579123E-29  -1.810976803239585E-29   -6.857266851892364E-30   1.0845240169603985E-31