% Model:              Untitled.mph
% Version:            COMSOL 6.0.0.405
% Date:               Jul 16 2025, 21:00
% Dimension:          1
% Nodes:              401
% Expressions:        11
% Description:        Point graph
% Time (s)                Displacement field, Y component Displacement field, Y component Displacement field, Y component Displacement field, Y component Displacement field, Y component Displacement field, Y component Displacement field, Y component Displacement field, Y component Displacement field, Y component Displacement field, Y component Displacement field, Y component
0                         4.523612873376333E-34    1.1544481977760317E-32   3.7455881898482396E-33   -3.603485628490322E-35   -2.3358390898623485E-35  8.482174119708178E-34    1.7034232680691816E-38   -2.0026969704316236E-39  -3.946332200611933E-39   1.1697263426867911E-34   2.920373983051603E-35
5.0E-7                    7.338076387363659E-26    6.478622825938706E-24    9.565961966536262E-25    4.085016143483824E-25    -2.165273788235881E-25   1.5985862977595426E-25   -2.868213841751965E-28   2.066942230506681E-30    1.1288527809093623E-30   -2.39215762331693E-26    -2.6279820302280495E-26
1.0E-6                    -1.2711810547269912E-24  -5.0204441689125744E-23  -4.753233684122306E-24   -4.048412937552749E-25   3.731295016869578E-24    1.1041448446099606E-24   2.9440697839821412E-27   -6.553933608272438E-30   -7.666649972077017E-30   1.7760202164648387E-25   2.3414293275928573E-25
1.5E-6                    2.6011262669496523E-24   -1.2782074576872504E-22  -2.347272750147713E-23   -8.730110254789654E-24   -9.85059799037308E-24    -1.0807928624335736E-23  -4.7228832917495295E-27  -3.40576151321174E-29    3.918618117979008E-29    -7.708656394919508E-25   -6.268179635191767E-25
2.0E-6                    2.0466442474752E-23      1.5642900003322614E-21   1.2282300957196175E-22   1.5779199460640835E-23   -6.227961096372051E-23   1.4387342217069462E-23   -4.168215527259267E-26   5.480565163972888E-29    -1.2218638156216712E-28  -3.0138609347540223E-25  -1.955892296722602E-24
2.4999999999999998E-6     -1.1119799793353448E-22  -9.452245303068948E-22   7.966011613178446E-23    7.801714515759276E-23    3.2066595848640474E-22   2.1041328713965215E-22   1.5898335129217983E-25   1.6542781434020193E-27   1.9338564743644492E-28   1.0680854620194358E-23   1.2040171891900339E-23
3.0E-6                    4.278728897033127E-23    -1.5774960007473288E-20  -1.2308599553124355E-21  -1.828319216241145E-22   4.932719142576657E-22    -2.2327079204522144E-22  1.891642973147657E-25    -5.930382226923749E-27   2.5432149779298622E-28   -1.2800748507116506E-23  -1.1689793465757474E-24
3.5E-6                    9.419291042848143E-22    1.517227881135907E-20    7.448016185023352E-22    -5.318639203754409E-22   -3.844993981784628E-21   -2.1022985935790594E-21  -1.8338621724193454E-24  -1.0888701221345944E-26  -2.6019305761150507E-27  -2.0719314561965577E-23  -6.403720030035941E-23
4.0E-6                    -1.6481047583030294E-21  1.2528822877999696E-19   1.0527713806282324E-20   1.4804283272674067E-21   -2.776734855240927E-21   6.770919853281771E-22    4.69354231672085E-25     6.578666308590656E-26    5.5689852742697575E-27   4.010802748711351E-23    1.6953917185885003E-23
4.5E-6                    -4.3868860812771525E-21  -7.720831601930575E-20   -1.2633866481524836E-20  5.955620235493316E-21    2.7824400997211054E-20   1.5011801658972185E-20   1.5048311068802632E-23   5.240440451435254E-26    7.090104098924179E-27    -2.683381868506982E-22   1.343980808074501E-22
4.9999999999999996E-6     1.366724121154411E-20    -8.467332250121384E-19   -6.403395406792517E-20   -4.334711188295114E-21   1.706552865249789E-20    4.878697063007362E-21    -1.0943528005381541E-23  -4.8353396951421055E-25  -4.842415067981326E-26   -4.571259554661407E-22   4.5277507337231216E-23
5.5E-6                    1.7879535504854528E-20   2.036383812653961E-19    1.407095752943631E-19    -4.305124774605848E-20   -1.5048350196861773E-19  -7.475960729682152E-20   -1.1604645465528128E-22  -2.2637545331941284E-25  2.4235909144247767E-26   3.0667468600467204E-21   8.384631858681765E-22
6.0E-6                    -7.001404999800325E-20   5.0060657566557505E-18   3.8764003141155217E-19   2.9343896000998623E-20   -1.2586556830322682E-19  -6.739890220197847E-20   4.847131836942944E-23    3.135570924862757E-24    1.95504826384845E-25     7.919828560994914E-21    2.9524539514531235E-22
6.5E-6                    -5.258518741480212E-20   1.886794447982045E-18    -6.687934507751619E-19   3.82699037918221E-19     6.580784191677263E-19    2.592934590079911E-19    8.674735414585684E-22    1.0799640227849778E-24   -2.8039524710458782E-25  -1.3761761609272958E-20  -1.1106705909734685E-20
7.0E-6                    3.8511352023327744E-19   -2.026611682118935E-17   -1.1453325095435494E-18  2.979110690677983E-19    9.069232318610695E-19    4.200275495264856E-19    3.837017571392422E-22    -1.912447258644948E-23   -1.4986602436741E-25     -6.822011685083179E-20   -1.4251321913150777E-20
7.499999999999999E-6      5.17594305019791E-19     -1.506979112383886E-17   4.7733963963119845E-18   -1.0040777336516339E-18  -2.1409975988119968E-18  -5.743587652796098E-19   -5.3608534379008494E-21  -6.009645392003771E-24   9.338389585511341E-25    -4.000943808778819E-21   6.327733430311397E-20
8.0E-6                    -5.820413899353559E-19   7.787642816861696E-17    9.602598351570802E-18    3.4211938288562104E-19   -5.037738988964241E-18   -1.752279699297122E-18   -7.989921842635275E-21   1.1861395426138343E-22   -4.2103212729949234E-24  3.3340883997694706E-19   1.4710239893063033E-19
8.5E-6                    4.910221798484631E-19    1.3660216206055127E-16   -2.966255500645227E-18   1.0290805842322899E-17   4.4894748571470635E-18   3.3605275272256726E-19   2.319524565156698E-20    7.548785285420691E-23    1.7203879322229155E-24   4.0797751063794456E-19   -1.921867955810719E-19
9.0E-6                    1.102357214870537E-17    -5.435076155004708E-17   5.179573094010607E-18    2.0686925420973717E-17   2.348706282887407E-17    5.317827687506783E-18    7.044447154441301E-20    -6.223231683547158E-22   4.365577285973032E-23    -9.088677773580219E-19   -9.087196091779806E-19
9.499999999999999E-6      3.2210252536698944E-17   -2.1973381786500542E-16  1.1572215445592866E-16   2.0894658869575707E-17   8.921684075343391E-18    3.681221489973896E-18    -4.118223174116076E-20   -6.430235029174746E-22   -2.800450774663977E-23   -2.737823630510343E-18   -9.015163835386453E-20
9.999999999999999E-6      6.7740562909999E-17      4.667165195663337E-16    2.9312926075894565E-16   6.344262910887097E-17    -6.270950753306007E-17   -1.0680649510224504E-17  -3.8727864479602785E-19  3.010579601289501E-21    -2.796591332521218E-22   -2.090580402215457E-19   3.625543060895158E-18
1.05E-5                   1.8971530211709573E-16   2.2473442471817944E-15   4.997833993450488E-16    2.7614671239957777E-16   -6.994652986252961E-17   -1.7146825837232796E-17  -2.4439856694071177E-19  5.6730224296199424E-21   1.4128762537130178E-22   8.570234527604742E-18    4.0334728242321825E-18
1.1E-5                    6.419992498411444E-16    4.233431458458162E-15    1.3283846583024834E-15   7.669759302305163E-16    1.7016297585869353E-16   1.8540656212920632E-17   1.3955088284389533E-18   -7.98101053559067E-21    1.5135975500108014E-21   9.244553070983173E-18    -9.3850676359818E-18
1.15E-5                   1.9321405476272825E-15   6.2610138570009974E-15   4.122145388160695E-15    1.7334161710084206E-15   4.831701704643942E-16    7.696077696185411E-17    2.6223934248468063E-18   -2.729923526879677E-20   5.649214899285006E-23    -1.8959802490376254E-17  -2.4859902507811878E-17
1.2E-5                    5.099122038054422E-15    1.2074044984202137E-14   1.0255398929715534E-14   4.082798173467483E-15    3.178784607381472E-16    6.940698577144528E-17    -2.1821838069488164E-18  1.662545827429869E-20    -5.958269159231643E-21   -5.556496834147243E-17   2.7854923971004694E-18
1.2499999999999999E-5     1.2821716739374833E-14   3.2112115007957574E-14   2.2795389379252146E-14   1.0303520592701776E-14   -9.29723896995133E-17    -8.082941951546414E-19   -1.171998604835382E-17   1.4305348178334073E-19   -2.247920139141793E-21   -3.169125189905082E-17   7.690621897791973E-17
1.3E-5                    3.207241124771088E-14    8.298755882831842E-14    5.2440566931467394E-14   2.5358269006879843E-14   1.0739328346684545E-15   1.4035845303353033E-16   -5.579690184757536E-18   1.4713134890249164E-19   2.292447118957254E-20    4.343810179977532E-17    6.07005253121943E-17
1.35E-5                   7.842182690754172E-14    1.7867749731234562E-13   1.2156595955842308E-13   5.816497203142079E-14    5.199053834951466E-15    8.486144452557148E-16    3.3450009381004284E-17   -1.698715807568575E-19   2.784599930027311E-20    -3.510014672580101E-17   -1.884068010832407E-16
1.4E-5                    1.82892759175206E-13     3.2694136850705503E-13   2.646057867792062E-13    1.255064855717359E-13    1.1371630833048838E-14   2.161463234006277E-15    6.18676132775593E-17     -2.512880369498452E-19   -3.993079514857647E-20   -4.807345771144115E-16   -4.3626768071788937E-16
1.45E-5                   4.0571524124235325E-13   5.723526956304188E-13    5.447088294349815E-13    2.6387952794772315E-13   2.1500339331056304E-14   4.187902004448086E-15    -1.4875296820443936E-17  1.26960806161824E-18     -6.805797274657741E-20   -1.1791082993364191E-15  -1.2543349810205444E-16
1.4999999999999999E-5     8.627261393829449E-13    1.0778877570543583E-12   1.0984097416236456E-12   5.54447335878696E-13     4.7482192276874306E-14   8.540145084087571E-15    -1.706396352028802E-16   4.73410236557307E-18     1.915671776330292E-19    -1.9436501853867926E-15  5.766843753363805E-16
1.55E-5                   1.7651605214712223E-12   2.11281999159138E-12     2.1641969705260372E-12   1.1458518902448293E-12   1.0594471611584716E-13   1.901393966713235E-14    -1.0397368683532263E-16  8.135880999328026E-18    6.412946034076565E-19    -3.6654338413117354E-15  -5.6664645971848804E-18
1.6E-5                    3.4678463870087165E-12   3.861188250682089E-12    4.056124552276663E-12    2.244820981787378E-12    2.122066480774724E-13    4.098181677413734E-14    4.862101573500901E-16    1.1929285251699889E-17   6.865393218180477E-19    -9.299900001380295E-15   -3.363479137802788E-15
1.6499999999999998E-5     6.514786136204262E-12    6.313647490309087E-12    7.172846975909455E-12    4.110067868488349E-12    4.1143087473858633E-13   8.45188954470832E-14     1.232097651236332E-15    2.976236391574721E-17    5.698868102608813E-19    -2.3082923649862707E-14  -7.890062616858473E-15
1.7E-5                    1.164848895630204E-11    9.65810747790305E-12     1.2140456111757469E-11   7.174596755911651E-12    8.304591918399074E-13    1.7531491167219127E-13   1.0974352791566683E-15   9.302472715419012E-17    3.1276445505476623E-18   -4.868948798796091E-14   -1.0508704174203537E-14
1.75E-5                   1.971995839119277E-11    1.4922223664763663E-11   1.982984890627616E-11    1.2257590842826795E-11   1.659996026378951E-12    3.629486267197535E-13    1.1602448240885742E-16   2.436048500584403E-16    1.2603956711017875E-17   -9.233106088130974E-14   -1.4768059629848135E-14
1.8E-5                    3.144845501487104E-11    2.3746932108339394E-11   3.072827984846837E-11    2.0391412726026816E-11   3.070497005589003E-12    7.116245545800014E-13    1.5627488264043428E-15   5.47781388994913E-16     3.090166529548477E-17    -1.774360679843519E-13   -3.6035768683444175E-14
1.85E-5                   4.70190325557508E-11     3.673069367417997E-11    4.382875898199365E-11    3.182132266563116E-11    5.2511886592218925E-12   1.2941559083787033E-12   1.0702501786745069E-14   1.1900148354881131E-15   6.100077976802267E-17    -3.6181256121030725E-13  -9.351596984393524E-14
1.8999999999999998E-5     6.550435363378074E-11    5.186150776605003E-11    5.641483719815337E-11    4.4860893643985135E-11   8.638740679604801E-12    2.245294802351338E-12    2.902234445213583E-14    2.6616170595987133E-15   1.2916213901248875E-16   -7.301304635968143E-13   -1.979739051416813E-13
1.95E-5                   8.420167578708919E-11    6.533660254073052E-11    6.580692894463992E-11    5.6352315895311444E-11   1.3959620411852487E-11   3.860185620147516E-12    5.185312159556371E-14    6.011061055887977E-15    3.207898423071119E-16    -1.3628544150561017E-12  -3.599381478275592E-13
1.9999999999999998E-5     9.844605725874212E-11    7.442392581879682E-11    7.154431612755066E-11    6.425605990884279E-11    2.168892984753625E-11    6.5611800602860545E-12   8.119912218915515E-14    1.3232364536841512E-14   8.063129485931331E-16    -2.354403563351462E-12   -6.255616421689765E-13
2.05E-5                   1.0283948450773847E-10   7.885033391612523E-11    7.481282907038358E-11    6.973538604671537E-11    3.131625769295491E-11    1.0559756201423801E-11   1.501132866513944E-13    2.8125133615589057E-14   1.861567664823852E-15    -3.9372622050318804E-12  -1.1103729219035365E-12
2.1E-5                    9.390100047749442E-11    7.857532047666186E-11    7.487521101820388E-11    7.52610869309339E-11     4.139197805813827E-11    1.5411354841421552E-11   3.294992731985084E-13    5.810957672804136E-14    3.9934205495128484E-15   -6.572189482387078E-12   -1.9945766525476216E-12
2.1499999999999997E-5     7.20088933754652E-11     7.088378837247226E-11    6.710909329039248E-11    7.96294736798425E-11     5.0537170200831706E-11   2.0039663170203935E-11   6.933609035359093E-13    1.1738062080958393E-13   8.389225471079364E-15    -1.0711912719990075E-11  -3.4796527042623898E-12
2.2E-5                    4.002627123197195E-11    5.128442453657499E-11    4.638244891157335E-11    7.597986638677676E-11    5.82179374625491E-11     2.3479054353652944E-11   1.276863772246576E-12    2.31554837304863E-13     1.7818043515638144E-14   -1.6212240446484163E-11  -5.73250880300028E-12
2.2499999999999998E-5     -6.701272892158912E-13   1.7608161508991634E-11   1.2144458144361229E-11   5.6986000436330606E-11   6.414564601569774E-11    2.560563944119014E-11    2.1128017218444496E-12   4.4374004314660694E-13   3.778563635389379E-14    -2.192652378253453E-11   -8.822161246811196E-12
2.3E-5                    -5.224143972339222E-11   -2.810775173401906E-11   -3.181076207611358E-11   2.2402042495033644E-11   6.691240703905999E-11    2.6789847616871138E-11   3.367099361200282E-12    8.22110804136085E-13     7.776173434886487E-14    -2.611312731327618E-11   -1.2632506122913341E-11
2.35E-5                   -1.1758537753687787E-10  -8.257557986878907E-11   -8.275503303832417E-11   -2.07197930990277E-11    6.364250414365497E-11    2.6631827673388425E-11   5.4165960772715764E-12   1.4696515442451597E-12   1.5342347963919801E-13   -2.749589239090624E-11   -1.677715553448757E-11
2.4E-5                    -1.9581129677233328E-10  -1.4498010430756447E-10  -1.4171129765395864E-10  -6.690857116431357E-11   5.133096326398293E-11    2.3427449584167777E-11   8.634701982971641E-12    2.534081354082167E-12    2.9219251423358677E-13   -2.5956338689893032E-11  -2.0600823282987753E-11
2.45E-5                   -2.8142410054481006E-10  -2.163368972707138E-10   -2.099861746114137E-10   -1.1972802643695262E-10  2.845515927820374E-11    1.5449373899162818E-11   1.289229728672459E-11    4.203257577055546E-12    5.428170627837587E-13    -2.209603706675479E-11   -2.3309497330411032E-11
2.4999999999999998E-5     -3.677697853769891E-10   -2.9538956189731886E-10  -2.861811071076565E-10   -1.878009963475896E-10   -4.947550387640109E-12   2.730085874861017E-12    1.7205293166304347E-11   6.653625561991265E-12    9.846600384332712E-13    -1.6140610349485946E-11  -2.4146182177482132E-11
2.55E-5                   -4.506056122244007E-10   -3.768720126209791E-10   -3.689640498849463E-10   -2.740859774197364E-10   -4.862191913250927E-11   -1.3000534575565948E-11  2.005447223483084E-11    9.927355553789314E-12    1.7299194344426434E-12   -7.368972371474852E-12   -2.24965816721113E-11
2.6E-5                    -5.294258002323096E-10   -4.554123917180024E-10   -4.598805887488148E-10   -3.722237178808073E-10   -1.0281963456037557E-10  -3.0420398607317014E-11  2.034557830925635E-11    1.3775118989841626E-11   2.917631894701964E-12    5.404950671252503E-12    -1.7924104865165152E-11
2.65E-5                   -6.074028507622143E-10   -5.311140673802643E-10   -5.590611478595199E-10   -4.738269066946195E-10   -1.6707425602147412E-10  -5.025689825343502E-11   1.8202823742584848E-11   1.757678405932982E-11    4.701615032462165E-12    2.2882335622649773E-11   -1.0194515765002184E-11
2.7E-5                    -6.893534822743686E-10   -6.090994120928985E-10   -6.587277711529608E-10   -5.756434480510145E-10   -2.3855240584784827E-10  -7.438923877294867E-11   1.4704194403660988E-11   2.043957773866966E-11    7.218680981902461E-12    4.4734334097725985E-11   7.593707532837478E-13
2.7499999999999998E-5     -7.757872172526562E-10   -6.907157040047095E-10   -7.451994959760207E-10   -6.772830863169892E-10   -3.127887686954518E-10   -1.0340854949728876E-10  1.0603323925997856E-11   2.1436005375409653E-11   1.050476546437887E-11    6.979579506886541E-11    1.5023936729949277E-11
2.8E-5                    -8.56147712709938E-10    -7.649496281930789E-10   -8.087433649141995E-10   -7.748862229282024E-10   -3.8686457906718923E-10  -1.3541318866193084E-10  5.197339749916368E-12    1.981508470010033E-11    1.4358400652115368E-11   9.675086021007444E-11    3.290437264741758E-11
2.8499999999999998E-5     -9.094313939246651E-10   -8.117808388205803E-10   -8.487669994683592E-10   -8.608676792727947E-10   -4.6134270539209843E-10  -1.673153411298894E-10   -3.455089112007352E-12   1.5073700409565413E-11   1.824146229843334E-11    1.2475563805901098E-10   5.480394908836794E-11
2.9E-5                    -9.150659839486902E-10   -8.166784457749359E-10   -8.674980908794565E-10   -9.288222768700571E-10   -5.379306903191472E-10   -1.9720567738374678E-10  -1.701286596005236E-11   6.9631020326708465E-12   2.13514653747725E-11     1.5341605891374096E-10   8.069816005411568E-11
2.95E-5                   -8.651423277244104E-10   -7.800380242025369E-10   -8.603227454924805E-10   -9.746011898434092E-10   -6.148768989739828E-10   -2.2528457790025607E-10  -3.5416620732322434E-11  -4.437634691038625E-12   2.2884134540109518E-11   1.8206000287165535E-10   1.0961116059766848E-10
2.9999999999999997E-5     -7.65643902054716E-10    -7.091494883653133E-10   -8.145496787476466E-10   -9.91578067136892E-10    -6.850912429359359E-10   -2.522772035055163E-10   -5.692973455433834E-11   -1.8640225974434595E-11  2.230445735784058E-11    2.0909753311031547E-10   1.3962249633902015E-10
3.05E-5                   -6.247641009964137E-10   -6.019742427648436E-10   -7.169342614838443E-10   -9.678075928413185E-10   -7.38854725266241E-10    -2.7678539603476644E-10  -7.962690584213247E-11   -3.4880588013789524E-11  1.9399464981627902E-11   2.3229991846793342E-10   1.6850429601668383E-10
3.1E-5                    -4.396816074172579E-10   -4.429853770632228E-10   -5.59922230752828E-10    -8.899654633671705E-10   -7.678879005929155E-10   -2.9443589452421216E-10  -1.0285517015866834E-10  -5.2502892408239173E-11  1.4090332620626879E-11   2.496291031416766E-10    1.9453346270898715E-10
3.15E-5                   -1.948373022591904E-10   -2.1551385392679085E-10  -3.399230502194337E-10   -7.488721682834397E-10   -7.668074935948075E-10   -3.001574659783922E-10   -1.2717949901295243E-10  -7.125384803664107E-11   6.202571905083159E-12    2.5939796183828185E-10   2.1679882509554309E-10
3.2E-5                    1.2704005242340644E-10   8.555581752155394E-11    -5.217411024564784E-11   -5.394202374453106E-10   -7.315410403708629E-10   -2.914006334244058E-10   -1.5278781980977925E-10  -9.111666086052278E-11   -4.6360758645593645E-12  2.595126200854762E-10    2.3464365651831134E-10
3.25E-5                   5.323986228540822E-10    4.5418043855006113E-10   3.0916249225314783E-10   -2.560037911001241E-10   -6.570464757962724E-10   -2.6857539053395553E-10  -1.7787666482199724E-10  -1.1179335906926097E-10  -1.899116420833623E-11   2.4708001187713826E-10   2.46661387656876E-10
3.2999999999999996E-5     1.013817526133243E-9     8.811523239230354E-10    7.450141094423781E-10    1.092478943812693E-10    -5.362695316271216E-10   -2.319374945496495E-10   -1.9868545829399906E-10  -1.323795204757761E-10   -3.7567757332970896E-11  2.1932913422520024E-10   2.502453677577762E-10
3.35E-5                   1.5561321146694608E-9    1.3574737434803967E-9    1.2476295849486673E-9    5.62211155299706E-10     -3.60739710290937E-10    -1.7846049305801133E-10  -2.1138352123533232E-10  -1.515702565536367E-10   -6.100734748511989E-11   1.7482604711389711E-10   2.422322806225955E-10
3.4E-5                    2.143176192190923E-9     1.8720901494572268E-9    1.8042730073380075E-9    1.1013421573475372E-9    -1.2252779616788497E-10  -1.0242392890200559E-10  -2.142176967717703E-10   -1.6809442917888145E-10  -8.941602619846086E-11   1.1321609894056187E-10   2.1992373632487334E-10
3.45E-5                   2.7593744279935785E-9    2.41128989755306E-9      2.4029785115108864E-9    1.71717572311417E-9      1.8312214611824275E-10   8.456190917865663E-13    -2.0789990380208372E-10  -1.8080581130828565E-10  -1.2180529329539688E-10  3.353267826391258E-11    1.8128193847036882E-10
3.5E-5                    3.387404379211396E-9     2.961237056463206E-9     3.031795886712798E-9     2.396272845279647E-9     5.559746147145807E-10    1.3201565611839589E-10   -1.937218958832648E-10   -1.8833158965011533E-10  -1.5592571809824088E-10  -6.678790418307145E-11   1.242162830190431E-10
3.5499999999999996E-5     4.005275340276782E-9     3.507699037417085E-9     3.6719914114362462E-9    3.1237686422969767E-9    9.912702638429773E-10    2.88114050953949E-10     -1.7103289346817788E-10  -1.887985300530192E-10   -1.888213381340579E-10   -1.9050209980089125E-10  4.6224707169791215E-11
3.6E-5                    4.584291278597251E-9     4.030386639473467E-9     4.293963906069826E-9     3.880949019358803E-9     1.482050160644754E-9     4.6500192448930044E-10   -1.3638025226193394E-10  -1.8010916227782107E-10  -2.1785400899473702E-10  -3.3777234495073133E-10  -5.466246359154209E-11
3.65E-5                   5.088753695733916E-9     4.497422722049999E-9     4.860710014389797E-9     4.640594173523379E-9     2.0206991678456347E-9    6.591313888618677E-10    -8.502058884207661E-11   -1.6053995503126192E-10  -2.4146411991792855E-10  -5.047865519263286E-10   -1.7836072828086806E-10
3.7E-5                    5.478568369844052E-9     4.866564323473829E-9     5.334001064216584E-9     5.365392936493332E-9     2.5974252385759934E-9    8.672003198496623E-10    -1.3285502443806099E-11  -1.2895363284456235E-10  -2.590330936354015E-10   -6.85253257184675E-10    -3.2224130945856367E-10
3.75E-5                   5.713751211740631E-9     5.093240271261156E-9     5.676599270941457E-9     6.011253568076103E-9     3.1965576394486657E-9    1.084393304119122E-9     8.019212328677442E-11    -8.431672404700248E-11   -2.6988073786071783E-10  -8.731859241455012E-10   -4.822756548347565E-10
3.7999999999999995E-5     5.757027946437296E-9     5.139149430431968E-9     5.8506716142494484E-9    6.532431253879766E-9     3.794112598358891E-9     1.3028180096220546E-9    1.9476095623894404E-10   -2.507529588939717E-11   -2.7214504288463503E-10  -1.0640032308233025E-9   -6.547346997889797E-10
3.85E-5                   5.57244830900039E-9      4.974892227456656E-9     5.8173295405885475E-9    6.8843064044063744E-9    4.358910243311786E-9     1.5114336640739365E-9    3.2831396156661276E-10   5.076876536285362E-11    -2.624301237295486E-10   -1.2527862911394758E-9   -8.368179884975242E-10
3.9E-5                    5.123419915837302E-9     4.575717869730942E-9     5.539453712883551E-9     7.022766065826646E-9     4.855892359222781E-9     1.6975993624015291E-9    4.772582742870342E-10    1.4471591133159144E-10   -2.3651071226491265E-10  -1.4314672188614153E-9   -1.0255544246736404E-9
3.95E-5                   4.375550968545325E-9     3.91615804741869E-9      4.985132596452189E-9     6.902624972959037E-9     5.248450606374816E-9     1.8489933639565427E-9    6.365678244999066E-10    2.56692559836732E-10     -1.9057799194675894E-10  -1.5876271745343124E-9   -1.2157288977071099E-9
3.9999999999999996E-5     3.304552125660462E-9     2.9706626207217344E-9    4.1287542995191404E-9    6.478089116640227E-9     5.498486414426716E-9     1.9542904167863972E-9    8.009325746764287E-10    3.8469742498013064E-10   -1.222149661776189E-10   -1.705840354181326E-9    -1.3982903194383619E-9
4.0499999999999995E-5     1.902970446329669E-9     1.7213921616731528E-9    2.9506291806164483E-9    5.706258853534942E-9     5.5659624703442016E-9    2.002175981739014E-9     9.664112761443245E-10    5.253069128931615E-10    -3.063614521373768E-11   -1.7702696326124847E-9   -1.5603223370928817E-9
4.1E-5                    1.7993399980709445E-10   1.671750432637606E-10    1.4386546001686588E-9    4.5524721341005695E-9    5.410236924543513E-9     1.9798683768727853E-9    1.1305062783436174E-9    6.744244084808391E-10    8.376212578750417E-11    -1.7665882856438763E-9   -1.6865683990730629E-9
4.15E-5                   -1.844301199472183E-9    -1.6729414331388764E-9   -4.066344492349425E-10   2.995289619178118E-9     4.993298167572947E-9     1.8728180000663295E-9    1.289459248454516E-9     8.275724038513781E-10    2.201923077649619E-10    -1.6823432097850243E-9   -1.7614387598816635E-9
4.2E-5                    -4.1410132276287305E-9   -3.762291447109217E-9    -2.5667753398146268E-9   1.0292287770929388E-9    4.2830988942204025E-9    1.6664760654073258E-9    1.4343070563544927E-9    9.79526459740658E-10     3.780839894974824E-10    -1.506349012509977E-9    -1.7702077450089621E-9
4.2499999999999996E-5     -6.66802497481488E-9     -6.050941392094047E-9    -5.003758562924541E-9    -1.3350233164262004E-9   3.2556611429108134E-9    1.349622671278908E-9     1.5490298253465057E-9    1.123641501742782E-9     5.569044859896389E-10    -1.2284911161298858E-9   -1.6990508281846603E-9
4.2999999999999995E-5     -9.361713044744687E-9    -8.477475335184812E-9    -7.661696387951276E-9    -4.070975671238096E-9    1.896479616722726E-9     9.173290613313639E-10    1.612981616859773E-9     1.2514433431149558E-9    7.549431431900457E-10    -8.409357688921537E-10   -1.534881218380408E-9
4.35E-5                   -1.2134925914350166E-8   -1.096741873570856E-8    -1.0468212465587627E-8   -7.1348031129525614E-9   2.025162388946926E-10    3.7130011803472766E-10   1.6065550740233387E-9    1.3528831428020786E-9    9.676923330789642E-10    -3.404459554311539E-10   -1.2662101760017322E-9
4.4E-5                    -1.4882924352786316E-8   -1.3430812058538893E-8   -1.3334408559472799E-8   -1.0461880771391052E-8   -1.8150997416960604E-9   -2.8270559973981374E-10  1.5163858581215826E-9    1.4171775595947484E-9    1.1870792867463793E-9    2.6965803029859446E-10   -8.850589265597764E-10
4.45E-5                   -1.7490316250089602E-8   -1.57624977917228E-8     -1.615582330539113E-8    -1.3964177779965774E-8   -4.128992257445546E-9    -1.0375723138056263E-9   1.336532722391378E-9     1.4336446428925274E-9    1.4022517613066362E-9    9.792093998409594E-10    -3.8863677121468965E-10
4.4999999999999996E-5     -1.9832686114244163E-8   -1.7846709572133527E-8   -1.88156449189408E-8     -1.7530813908009238E-8   -6.6950295842877E-9      -1.8841796271953376E-9   1.0650609818145434E-9    1.3918585812670216E-9    1.6012237780768961E-9    1.7724662819658484E-9    2.2034701846423774E-10
4.5499999999999995E-5     -2.1775958198954198E-8   -1.9563829205163315E-8   -2.118812573436585E-8    -2.103089696300924E-8    -9.4525095718446E-9      -2.8073803925781757E-9   6.991755845418447E-10    1.2811001701588761E-9    1.7719435507856428E-9    2.629558015358161E-9     9.344396018790456E-10
4.6E-5                    -2.3181345641065006E-8   -2.079547981730249E-8    -2.314058913148913E-8    -2.4316273627721372E-8   -1.2323540384098176E-8   -3.782497757105063E-9    2.334362181205567E-10    1.0900617216540697E-9    1.9021455584552606E-9    3.5268924912937334E-9    1.7419584088611392E-9
4.65E-5                   -2.3917364800490894E-8   -2.142658484779991E-8    -2.4535715519695183E-8   -2.722379505123189E-8    -1.5211953290700532E-8   -4.77580446610406E-9     -3.3690374772991975E-10  8.080102720533964E-10    1.9787527391622185E-9    4.436556444997539E-9     2.6263972254886544E-9
4.7E-5                    -2.387148423293641E-8    -2.134675942837511E-8    -2.5236647669779176E-8   -2.9579068820292913E-8   -1.8003919474334544E-8   -5.748092463391967E-9    -1.0099034336349505E-9   4.275235577572154E-10    1.9879425098433645E-9    5.325545517148601E-9     3.5650629016859457E-9
4.7499999999999996E-5     -2.2954089051338184E-8   -2.0454460818395448E-8   -2.511513745742122E-8    -3.1203484321790186E-8   -2.0571367828452225E-8   -6.657585076619051E-9    -1.7731609382852217E-9   -5.2641792096519375E-11  1.9160073183710625E-9    6.155347289844215E-9     4.527955613550702E-9
4.8E-5                    -2.1096015640145213E-8   -1.866569636260409E-8    -2.406100874715507E-8    -3.1924154089903036E-8   -2.2776592586628637E-8   -7.460366888785462E-9    -2.6050120792702977E-9   -6.263612117179072E-10   1.7502361241962482E-9    6.881903335740106E-9     5.477662606447979E-9
4.85E-5                   -1.8247504195356006E-8   -1.5926596247251784E-8   -2.1991073293623536E-8   -3.1584358851151554E-8   -2.44761135160223E-8     -8.110176751145622E-9    -3.4788439649886793E-9   -1.2811124286986762E-9   1.4793672101738932E-9    7.4562949031047E-9       6.3703936348835405E-9