% Model:              Untitled.mph
% Version:            COMSOL 6.0.0.405
% Date:               Jul 17 2025, 02:49
% Dimension:          1
% Nodes:              401
% Expressions:        11
% Description:        Point graph
% Time (s)                Displacement field, Y component Displacement field, Y component Displacement field, Y component Displacement field, Y component Displacement field, Y component Displacement field, Y component Displacement field, Y component Displacement field, Y component Displacement field, Y component Displacement field, Y component Displacement field, Y component
0                         1.7991930873769004E-36   -2.3226367026773158E-36  3.8453572370020674E-31   6.236027339377017E-31    4.042036348108157E-31    1.8493968554484805E-33   7.718103337626359E-34    -3.0812427820552556E-34  -3.2033681591349426E-33  -6.759899908210493E-33   -3.42368511985014E-30
5.0E-7                    -1.5068594765337849E-27  8.354201538402402E-27    9.047187315929453E-23    -2.408803532594847E-22   -3.3605688367353896E-22  8.55366210715959E-25     1.1301290896155324E-24   8.420754653922781E-26    4.1497778669115415E-24   3.612477314710374E-23    -1.8761632905955443E-21
1.0E-6                    1.1604569288999389E-26   4.091234024356911E-26    -1.3219062335681141E-21  8.437437244733636E-22    2.017987401864344E-21    1.1940965533113889E-23   -4.8087845219371715E-24  1.1126164643193252E-25   -9.041447961097826E-24   1.741123912696042E-25    8.562497417150125E-21
1.5E-6                    -3.4068547497094523E-26  -3.0338723162678047E-25  4.502348759668499E-21    6.280792282938608E-21    -1.4119061386977102E-21  2.917966280347539E-24    -9.29489253783607E-24    -9.143392446829634E-25   -1.186854191777783E-22   -4.79047851314539E-22    -8.544498480240022E-21
2.0E-6                    -9.553894754141276E-27   -1.097663855511593E-24   -2.865353534066091E-21   -2.445550392839168E-20   -2.3012601886350812E-20  -1.8486948919289026E-22  4.483312330272945E-23    -5.221616824296493E-24   3.204918848913319E-22    -8.978285832248608E-22   2.0570028360925256E-20
2.4999999999999998E-6     4.368435398900771E-25    2.9865368719165503E-24   -1.0838418632736589E-20  -3.136683778136268E-20   5.920068362850361E-20    -2.0073677650516756E-22  4.548818631455744E-22    4.636034209989377E-24    8.466246346120513E-22    2.17992020921113E-21     -1.6607765524158742E-19
3.0E-6                    -8.953939399612884E-25   1.5777396065169883E-23   -8.101741093640408E-21   9.968917147934197E-20    1.0761264668379588E-19   1.7029298039405097E-21   -1.30358747940329E-22    9.430835713261611E-23    -2.060280796344307E-21   1.1472324384206337E-20   1.3705342710794713E-19
3.5E-6                    -3.2147041236485516E-24  -2.9596258396186246E-24  1.0473596141661949E-19   1.6128115751637924E-19   -4.419440062578769E-19   6.83761057109022E-21     -3.590265394840564E-21   1.403143570166085E-23    -5.589843901027247E-21   4.8539400909158984E-21   9.374305576545337E-19
4.0E-6                    8.964355778827337E-24    -1.2977889712384912E-22  9.305648292324413E-20    2.2215576975655886E-20   -4.2037145882793076E-19  4.0461358543908825E-21   1.3112094116472044E-21   -7.528687576554912E-22   8.314664881698309E-21    -7.507016078520754E-20   -7.006056115115838E-19
4.5E-6                    2.5903068301571925E-23   -2.07321795251621E-22    -8.52461214136742E-19    3.5031556115903775E-19   2.3266116628420466E-18   -2.270919230234345E-20   3.239383841979686E-20    -1.0040363273379385E-21  2.853089214294704E-20    -1.3182244644375844E-19  -3.3928666063049035E-18
4.9999999999999996E-6     -4.9608888627939005E-23  5.210133806559115E-22    -2.3670679119391177E-19  1.442297184084578E-19    1.6029002354168452E-18   -1.260527617772936E-20   3.718562000168067E-20    3.2793829774643204E-21   -2.4232590820523002E-20  2.7744055693157873E-19   -3.6439785989426115E-18
5.5E-6                    -1.9697062702854626E-22  2.2360133226552587E-21   4.565120548639177E-18    -3.995412646138354E-18   -8.838337686449749E-18   1.9421419935289908E-19   -7.512003338896462E-20   1.0255415305077334E-20   -1.0595092170313623E-19  8.548791494932562E-19    1.5366299459838428E-18
6.0E-6                    1.1215449779890756E-22   7.2629884592483E-22      1.620536364743991E-18    -5.2609618810316234E-18  -3.890216840524194E-18   5.605788944434358E-19    -4.4022634810062055E-20  -6.576504393181095E-22   6.154672537043302E-20    -5.67244765323339E-19    1.8239576168225924E-17
6.5E-6                    1.1572152022822414E-21   -1.080151655748245E-20   -1.6828512943427876E-17  1.6366551561591725E-17   2.932196103336323E-17    5.431144866360743E-19    7.321842524200507E-19    -4.865221599520172E-20   2.9879005911689777E-19   -3.5728403237492825E-18  2.8549168966870656E-17
7.0E-6                    7.205585168738628E-22    -2.1156409705888506E-20  -9.699649700546369E-18   5.538428238673663E-17    1.0228769220419903E-17   6.346106754738179E-19    2.0861067424220394E-18   -8.239320990310498E-20   -1.9127421882914976E-19  -7.786032651960129E-19   -1.9705371322098884E-17
7.499999999999999E-6      -4.6163836401957395E-21  1.418886651898526E-20    5.520187435665122E-17    6.024600170137907E-17    -7.12860528253559E-17    6.973075467427295E-18    3.8363453272469254E-18   5.81609545716247E-20     -6.12550215847016E-19    8.433989409071417E-18    -2.0211485187665896E-16
8.0E-6                    -8.941990193108856E-21   1.1255899570659654E-19   6.724536834984581E-17    -1.4295217608706176E-18  4.3708742468245394E-17   3.077700826645799E-17    1.0810615158225561E-17   4.58036879476165E-19     9.761975452286427E-19    5.382571162168508E-18    -5.11414927278929E-16
8.5E-6                    8.660967579325196E-21    1.3527131508878366E-19   -1.077311733368249E-16   -9.106551008401689E-17   3.8701095777922163E-16   7.652946041548812E-17    3.684639599863195E-17    6.322057546808448E-19    6.895647009569311E-19    -1.4351138734208456E-17  -4.3505805778962946E-16
9.0E-6                    4.7696082698123965E-20   -1.9449884082582938E-19  -2.150901684033636E-16   -5.557898231070218E-17   1.981339899993822E-16    1.6317792672154777E-16   1.0810027073727714E-16   -6.691590982332859E-19   -6.997790654600663E-18   -1.9237249999368725E-17  6.741011977877794E-16
9.499999999999999E-6      2.557940669068249E-20    -8.490925955956559E-19   2.9067684685746944E-16   6.615600864735194E-16    -7.439162836998056E-16   4.324814772190221E-16    2.8467598790422653E-16   -3.8879384148913766E-18  -5.65213358215706E-18    -2.305079410827031E-17   1.2353918314288137E-15
9.999999999999999E-6      -1.4622027425503745E-19  -7.965729002675479E-19   1.0660648423973106E-15   3.021183621978252E-15    3.220260027520191E-17    1.24244905801431E-15     7.238823301641774E-16    -5.054328458600533E-18   2.792781818862426E-17    -9.891731464151496E-17   -2.87338219401836E-15
1.05E-5                   -2.6874423726611037E-19  1.6587553808613794E-18   3.9466103271823013E-16   6.7470274868772325E-15   5.347866769034189E-15    3.133315454360617E-15    1.8060762272889397E-15   4.294416045172525E-18    3.8365366789409397E-17   -1.5482611724942622E-16  -1.212518401266765E-14
1.1E-5                    1.675538078994531E-19    5.749249271919708E-18    -1.7821573749661518E-15  8.528905798794817E-15    1.1433266291799223E-14   7.063895346985334E-15    4.3504943834297615E-15   2.3326094009697668E-17   -1.0072076550349268E-16  4.026295253130931E-17    -1.9313708849224617E-14
1.15E-5                   1.0728020257577861E-18   4.6352521087852175E-18   -2.1634250452052516E-16  6.2328856248127435E-15   9.254080137523787E-15    1.5459394401807242E-14   9.99381481409736E-15     2.0638907006506762E-17   -3.339097134837599E-16   1.5008061503120507E-16   -2.0036006370661362E-14
1.2E-5                    8.410217801303179E-19    -9.213485750786539E-18   1.0199464772556758E-14   1.0798045703403678E-14   3.5356782282940455E-15   3.334101075137167E-14    2.1899448909939788E-14   -5.178162947837606E-17   -2.6450703247390125E-16  -9.577282811828299E-16   -2.6858739169927718E-14
1.2499999999999999E-5     -1.955267212651437E-18   -2.592542465893951E-17   2.0601377796885277E-14   4.973380884848524E-14    2.7406824728633847E-14   6.828388329288944E-14    4.592445746989403E-14    -1.8214237889146426E-16  3.112369572847437E-16    -3.688625309101366E-15   -6.256170626307346E-14
1.3E-5                    -4.4752848735632145E-18  -1.0628622406999272E-17  1.1458610671699549E-14   1.3930114929392847E-13   1.1371292771412153E-13   1.3110266672011783E-13   9.239002951956993E-14    -2.4166885021155973E-16  4.565753434014948E-16    -6.471464167864844E-15   -1.3708088303282742E-13
1.35E-5                   2.5426191310884515E-19   6.205564018659786E-17    -9.22747691582315E-15    2.4393641932175787E-13   2.3590061634201083E-13   2.4153206823947933E-13   1.7919897691863692E-13   -9.280161292714442E-17   -1.7327034775929894E-15  -8.10831725612037E-15    -2.493708554027523E-13
1.4E-5                    1.3406462909255979E-17   1.5556323274548517E-16   2.0737557503493562E-14   3.0562921563652886E-13   3.128263320561971E-13    4.3654958082549116E-13   3.3628366461677644E-13   1.1948321010011277E-16   -6.9356327185158416E-15  -1.1733287507740832E-14  -4.3485892093124984E-13
1.45E-5                   2.0430795915850158E-17   1.8397069386345556E-16   1.5540826196742195E-13   3.835057640629666E-13    3.502047653313841E-13    7.708909074898777E-13    6.075995566799197E-13    -3.046513034665039E-16   -1.2635268340151193E-14  -2.4223876702652834E-14  -7.909537782670574E-13
1.4999999999999999E-5     4.439608893912979E-18    1.180213715495997E-16    3.2763340432231625E-13   7.444433966602726E-13    6.052134564234864E-13    1.313937367166086E-12    1.0502564368132345E-12   -2.49918079490374E-15    -1.5534608176581495E-14  -5.132897120548269E-14   -1.386675312200287E-12
1.55E-5                   -1.4347489944046448E-17  1.0506081175335347E-16   3.797472392891113E-13    1.6772933302577826E-12   1.4894269905327631E-12   2.1829840196384713E-12   1.753896379186237E-12    -7.129833239579214E-15   -1.8339938671119618E-14  -9.777430615390316E-14   -2.1822051102575524E-12
1.6E-5                    3.4168360176480204E-17   5.454662585379826E-16    3.2566195567054854E-13   3.1991682041026552E-12   3.125174313641127E-12    3.6489877227613186E-12   2.9218086017738703E-12   -1.3043138646968097E-14  -3.3821522669418704E-14  -1.7712792535439493E-13  -3.310509941497102E-12
1.6499999999999998E-5     1.9726855385510653E-16   2.116655421410832E-15    5.501852542361218E-13    5.2512445389413125E-12   5.092012487686946E-12    6.251080042222775E-12    5.004290036127304E-12    -1.7544521472864687E-14  -8.100578729429255E-14   -3.207529805717335E-13   -5.6229877601000675E-12
1.7E-5                    4.250752051526863E-16    5.547232027156256E-15    1.5496306924507108E-12   8.45350407522441E-12     7.14087459141601E-12     1.0740652713538E-11      8.750447358247912E-12    -2.1138035181910466E-14  -1.7984875662836707E-13  -5.714088249781806E-13   -1.0518182117794523E-11
1.75E-5                   7.2203060408648E-16      1.0932200634716884E-14   3.4022451656410366E-12   1.4271598533039881E-11   1.052287253409897E-11    1.774488143830104E-11    1.499521950521934E-11    -3.610116285470355E-14   -3.5153487815217484E-13  -9.729888814173246E-13   -1.8494865731068642E-11
1.8E-5                    1.4885673249337548E-15   1.741216020497704E-14    5.753201565645867E-12    2.3603196060765038E-11   1.7950093987105427E-11   2.7325541221751285E-11   2.420632659823349E-11    -9.0916689776677E-14     -6.189306412204704E-13   -1.605192098778669E-12   -2.797021219815968E-11
1.85E-5                   3.4640373225312877E-15   2.5465915108141383E-14   8.593548174362302E-12    3.5056834684813175E-11   3.092083651176764E-11    3.8777867174128256E-11   3.6160971347274254E-11   -2.1853299253996908E-13  -1.0146043551761296E-12  -2.6868499036049645E-12  -3.6507367661052525E-11
1.8999999999999998E-5     7.025217308855015E-15    4.308465694843528E-14    1.2842645809773879E-11   4.553118391286596E-11    4.674734005477022E-11    5.076250819200697E-11    5.007940791531501E-11    -4.288761938103901E-13   -1.6412639631357094E-12  -4.629986986021585E-12   -4.346710583931898E-11
1.95E-5                   1.2304053445325159E-14   9.199808091493594E-14    1.959827034841635E-11    5.314163256548466E-11    5.94515773359825E-11     6.151245652061301E-11    6.48799261753566E-11     -7.007190844589053E-13   -2.7847647744784427E-12  -7.815794819137666E-12   -5.027432521614174E-11
1.9999999999999998E-5     2.2010463822600392E-14   2.04803805795542E-13     2.860604192366161E-11    5.886230195768927E-11    6.465903326953299E-11    6.900690388576075E-11    7.883723860877395E-11    -1.0498462060239386E-12  -4.9146429360456624E-12  -1.2094211207495822E-11  -5.724673438007788E-11
2.05E-5                   4.518087253467623E-14    4.0859389203728685E-13   3.787704388143086E-11    6.419495773926656E-11    6.306370148755946E-11    7.142920137127134E-11    8.890297060391873E-11    -1.664780633960702E-12   -8.368133491898394E-12   -1.652906540696887E-11   -6.118752938000737E-11
2.1E-5                    9.652376298353551E-14    7.132949058224545E-13    4.51919922319497E-11     6.745084898625226E-11    5.8197947771683043E-11   6.794722523000243E-11    9.120612655250134E-11    -2.951246616366505E-12   -1.2858722221601905E-11  -1.997625559111789E-11   -5.754049826769859E-11
2.1499999999999997E-5     1.9135964351830446E-13   1.1465275404323122E-12   4.973708993186049E-11    6.364769877982231E-11    5.1429721218090774E-11   5.888079472877452E-11    8.321918042256536E-11    -5.290098593404076E-12   -1.7361742395690124E-11  -2.2146738331887916E-11  -4.478460342282034E-11
2.2E-5                    3.4775113915517574E-13   1.848909663366521E-12    5.178179774946763E-11    4.875003689214127E-11    4.044432568788458E-11    4.43260972385169E-11     6.530204566002469E-11    -8.593668150279812E-12   -2.0694562566665418E-11  -2.381429973395054E-11   -2.576972587784292E-11
2.2499999999999998E-5     6.069781242153483E-13    3.1349358622866044E-12   5.084231397947426E-11    2.3536793621671823E-11   2.245768968138129E-11    2.2267291186045303E-11   3.9292835202416985E-11   -1.2125744598218273E-11  -2.225543843835659E-11   -2.5484124207698426E-11  -4.794526698651363E-12
2.3E-5                    1.0625488930809073E-12   5.338206728436295E-12    4.484511556330501E-11    -7.150677494754393E-12   -2.574080333170232E-12   -1.1089642969643836E-11  5.706191770420363E-12    -1.4945325465396518E-11  -2.204807437659458E-11   -2.5920590080991552E-11  1.6005769743610308E-11
2.35E-5                   1.868431059432473E-12    8.402013287841195E-12    3.157032650072786E-11    -3.872455758364647E-11   -3.2654088868315444E-11  -5.791179560860755E-11   -3.6861488275586435E-11  -1.6618725034005324E-11  -2.0004336118059448E-11  -2.269470347379583E-11   3.782148344728469E-11
2.4E-5                    3.2044960113706768E-12   1.1554013714360607E-11   1.0715513801829806E-11   -7.039206964777884E-11   -6.687664421082584E-11   -1.1584761825240366E-10  -9.005745912605759E-11   -1.735928532345239E-11   -1.5619668360381657E-11  -1.467232523879235E-11   6.402477405559744E-11
2.45E-5                   5.201561212237663E-12    1.3583991761367322E-11   -1.5850378577127252E-11  -1.0536554419282889E-10  -1.0696102085529769E-10  -1.8004545272757276E-10  -1.5501584415427733E-10  -1.7331351040030593E-11  -8.48311490219294E-12    -3.608244990067086E-12   9.84305252480506E-11
2.4999999999999998E-5     7.84494408403776E-12     1.3746821032702488E-11   -4.574366556515337E-11   -1.4860172246045633E-10  -1.5586421580797855E-10  -2.486735606483848E-10   -2.3295828055254443E-10  -1.5937108061409908E-11  1.0797960409769748E-12   7.393115905762485E-12    1.440606973405005E-10
2.55E-5                   1.0889004681385851E-11   1.244534419162121E-11    -7.749475735965E-11      -2.041068677864454E-10   -2.1587823256395902E-10  -3.25041594122703E-10    -3.2432617747432337E-10  -1.2031056958965472E-11  1.225199008976348E-11    1.7133601828387273E-11   2.0243790438565288E-10
2.6E-5                    1.3836350633870418E-11   1.0741491853894825E-11   -1.1042483717888481E-10  -2.7298980693586714E-10  -2.884552572472441E-10   -4.1292071587451984E-10  -4.2668947653473844E-10  -4.88992486619494E-12    2.4510423288882964E-11   2.7738798888391603E-11   2.7293847976713717E-10
2.65E-5                   1.6027639898082708E-11   8.965526554757174E-12    -1.4418694927528807E-10  -3.527157814865473E-10   -3.745189193258726E-10   -5.104879708037329E-10   -5.353690877678688E-10   5.143511881716198E-12    3.779215161200251E-11    4.2849635291670426E-11   3.5232210467463864E-10
2.7E-5                    1.6818645944189804E-11   6.007871671602436E-12    -1.796151256006946E-10   -4.379176980611923E-10   -4.726705294383821E-10   -6.100328121617873E-10   -6.467770148354526E-10   1.698080747312905E-11    5.19574244737403E-11     6.486395934350094E-11    4.354588707334452E-10
2.7499999999999998E-5     1.575647765693467E-11    3.80617299161722E-13     -2.1997997095043812E-10  -5.226730089733986E-10   -5.760480807997694E-10   -7.026955681166368E-10   -7.59052960342136E-10    2.9652332101631014E-11   6.67297245359497E-11     9.40841533815736E-11     5.174986123737924E-10
2.8E-5                    1.269552007903134E-11    -8.027902427882027E-12   -2.700129203723865E-10   -6.030485695507465E-10   -6.719634468355906E-10   -7.816070518217301E-10   -8.681930853256006E-10   4.294788600346394E-11    8.258811081985366E-11    1.2979958177450287E-10   5.955992955846429E-10
2.8499999999999998E-5     7.849990121989874E-12    -1.7732832527761658E-11  -3.3236770172562175E-10  -6.779622822845439E-10   -7.466860194689207E-10   -8.405149457106392E-10   -9.652363942114558E-10   5.745433649262408E-11    1.0133287821971942E-10   1.7108509569889257E-10   6.682187579870432E-10
2.9E-5                    1.7211339465737993E-12   -2.745771621682358E-11   -4.0493878802216265E-10  -7.472267576646281E-10   -7.925758856450657E-10   -8.715956039211329E-10   -1.0385509099605063E-9   7.397246042976632E-11    1.2497695390746804E-10   2.161773207609694E-10    7.32801065129278E-10
2.95E-5                   -5.2443429082505926E-12  -3.7777504415427027E-11  -4.820677125121842E-10   -8.079792290827897E-10   -8.115269610741448E-10   -8.665148939201463E-10   -1.0776004683700395E-9   9.256465333692814E-11    1.5362787028384557E-10   2.617526930103236E-10    7.846025938674807E-10
2.9999999999999997E-5     -1.321301053302396E-11   -5.042691933396412E-11   -5.577937614009806E-10   -8.525868574699369E-10   -8.102794103481659E-10   -8.197588157293032E-10   -1.0736869804300407E-9   1.1192114736073747E-10   1.8450446369188181E-10   3.0367210494571505E-10   8.176711140842909E-10
3.05E-5                   -2.3257556392715926E-11  -6.60529433326705E-11    -6.265356550484893E-10   -8.702067854938169E-10   -7.895754952880414E-10   -7.297121210598088E-10   -1.019117010800481E-9    1.2977983246135042E-10   2.1320925729726205E-10   3.385833920078178E-10    8.262271485610507E-10
3.1E-5                    -3.683935605362193E-11   -8.319316209849593E-11   -6.804791199256837E-10   -8.508449933330123E-10   -7.364857630437572E-10   -5.949133182823954E-10   -9.077811168875078E-10   1.4422531033759593E-10   2.360566208801744E-10    3.644644601717979E-10    8.045732702396452E-10
3.15E-5                   -5.465460575257853E-11   -9.958645622939917E-11   -7.085073189773278E-10   -7.884294850377027E-10   -6.290809608957452E-10   -4.086692842239194E-10   -7.355007358513917E-10   1.546971524241482E-10    2.5127230766736805E-10   3.796457490454983E-10    7.458783458644956E-10
3.2E-5                    -7.586723523465218E-11   -1.1392304147125602E-10  -7.003970062273389E-10   -6.80579226982971E-10    -4.512399888203313E-10   -1.5870999826698852E-10  -4.970135075021703E-10   1.6180739360879006E-10   2.581565630586201E-10    3.8189340712477613E-10   6.418327180213144E-10
3.25E-5                   -9.857129796403372E-11   -1.2591290308636886E-10  -6.52816692485864E-10    -5.258433538169185E-10   -2.0355002012688356E-10  1.6557328567719507E-10   -1.8143851243403282E-10  1.6629543734723805E-10   2.5533098895515565E-10   3.688086337826111E-10    4.844638508597869E-10
3.2999999999999996E-5     -1.2105260837371647E-10  -1.3511557437712282E-10  -5.700684826816426E-10   -3.2094302365807525E-10  1.0099378487972945E-10   5.644758126697912E-10    2.27737562139297E-10     1.6805351206839157E-10   2.3989751174657195E-10   3.386688838064827E-10    2.689950226656018E-10
3.35E-5                   -1.4251129344613115E-10  -1.4051120468162431E-10  -4.578488789267564E-10   -6.004615699504589E-11   4.518414101948803E-10    1.0268867572961366E-9    7.448738455840762E-10    1.6566211695456196E-10   2.0822163408143565E-10   2.900427545512633E-10    -5.0254165694743195E-12
3.4E-5                    -1.6256689450517563E-10  -1.413175908787699E-10   -3.159820781841988E-10   2.6333538314417714E-10   8.504820761209119E-10    1.5379461159269245E-9    1.3709602229695407E-9    1.5634536033580353E-10   1.5749160370974955E-10   2.2024382825723721E-10   -3.357942507366528E-10
3.45E-5                   -1.8030094527577393E-10  -1.37510730850936E-10    -1.3678938692195953E-10  6.527096023389117E-10    1.3050252223536868E-9    2.0870569559331563E-9    2.088328820227617E-9     1.363431516661313E-10    8.676813524705172E-11    1.2462827133913372E-10   -7.226049485989012E-10
3.5E-5                    -1.9394510567743158E-10  -1.2889251272386824E-10  9.038678828359195E-11    1.1054250768366779E-9    1.8159734323264273E-9    2.6679192520235483E-9    2.866608724373635E-9     1.0181027796800826E-10   -3.032595270797791E-12   -1.7454905508089006E-12  -1.166823410817306E-9
3.5499999999999996E-5     -2.0126379128703553E-10  -1.1373097444444294E-10  3.7314440800773215E-10   1.6123345005886475E-9    2.3679021717508845E-9    3.271257979745794E-9     3.6746019865715135E-9    5.0017845278690734E-11   -1.0998065216012099E-10  -1.6108144522706007E-10  -1.668940105259437E-9
3.6E-5                    -1.99869858318088E-10    -8.889123214080651E-11   7.126065282776918E-10    2.1606933497196488E-9    2.934577585965741E-9     3.877763202217805E-9     4.486879729214291E-9     -1.9694878533141402E-11  -2.3223743429310405E-10  -3.5109321198212576E-10  -2.223880714109116E-9
3.65E-5                   -1.8726696709595389E-10  -5.170017987544946E-11   1.1032293169791079E-9    2.737665465365403E-9     3.490737416226131E-9     4.45669843056441E-9      5.2799713467420325E-9    -1.0566529540513529E-10  -3.6873499256275885E-10  -5.661071124202993E-10   -2.818199023835126E-9
3.7E-5                    -1.611696576025294E-10   -1.6097881383444198E-12  1.5342290500712282E-9    3.3309148979438428E-9    4.0178131642400755E-9    4.96939803165516E-9      6.023802418451701E-9     -2.044972651823403E-10   -5.188247258387641E-10   -7.998510329992846E-10   -3.4308182462206616E-9
3.75E-5                   -1.2013001749612624E-10  6.018250744473572E-11    1.991225128070991E-9     3.92555909793474E-9      4.498819166480643E-9     5.374116803897651E-9     6.677263480680984E-9     -3.123346257908582E-10   -6.809874548788604E-10   -1.047189555583554E-9    -4.036001172044384E-9
3.7999999999999995E-5     -6.355412480920445E-11   1.3255733409953408E-10   2.457844130569171E-9     4.5006015528352455E-9    4.909456473391531E-9     5.629975397827675E-9     7.190717242614167E-9     -4.2616438181400933E-10  -8.5157300978939E-10     -1.303221471783866E-9    -4.6060496021258386E-9
3.85E-5                   9.211919503081223E-12    2.1531325435494897E-10   2.9175420006324574E-9    5.028459443980965E-9     5.21500488774778E-9      5.699019766681455E-9     7.511309321283486E-9     -5.441262371552753E-10   -1.024488770078942E-9    -1.5607983899312827E-9   -5.112358087429926E-9
3.9E-5                    9.936799961909237E-11    3.0790527392855416E-10   3.3550687905798014E-9    5.4776295796436945E-9    5.374819275038099E-9     5.546035590592416E-9     7.585988782860843E-9     -6.643812425723984E-10   -1.1917650579246386E-9   -1.809005578682256E-9    -5.525157519054583E-9
3.95E-5                   2.0737130275142976E-10   4.0793743344299167E-10   3.755806022576413E-9     5.815239188223676E-9     5.348779902518075E-9     5.137621413829748E-9     7.3614320575429915E-9    -7.834920910025613E-10   -1.3442793468319984E-9   -2.0340817438512863E-9   -5.812947681293435E-9
3.9999999999999996E-5     3.309524552981777E-10    5.117841869332287E-10    4.102079073741238E-9     6.007230722996987E-9     5.100709895632764E-9     4.443393027631147E-9     6.784267989606471E-9     -8.959308617802434E-10   -1.4722461551663742E-9   -2.2218189902050956E-9   -5.942246275713571E-9
4.0499999999999995E-5     4.6515266264484327E-10   6.166589194373489E-10    4.369015032236455E-9     6.017631876195403E-9     4.599159018190308E-9     3.439872073207603E-9     5.805035205463345E-9     -9.951746037574659E-10   -1.5655400691981057E-9   -2.3591639907876035E-9   -5.87785437433007E-9
4.1E-5                    6.051059081224958E-10    7.209499641580965E-10    4.524737183042555E-9     5.80987545292975E-9      3.818392549290941E-9     2.114063022277725E-9     4.385917560033665E-9     -1.0750275111107963E-9   -1.6138698034704611E-9   -2.433772201072701E-9    -5.583936004926633E-9
4.15E-5                   7.487265856411657E-10    8.216237981866151E-10    4.536610647023806E-9     5.350815221806202E-9     2.740588417130707E-9     4.6444956672184573E-10   2.5090750377163864E-9    -1.1295040391132377E-9   -1.6067771525253218E-9   -2.4324029316760094E-9   -5.0265450004432164E-9
4.2E-5                    8.959968527082004E-10    9.116269279018104E-10    4.379167847331364E-9     4.61504085929656E-9      1.3584569229782754E-9    -1.4986580068750925E-9   1.812706122523181E-10    -1.1513079704803916E-9   -1.5337605827924523E-9   -2.3400563328255587E-9   -4.1778802411474065E-9
4.2499999999999996E-5     1.0451409588490461E-9    9.807283842184826E-10    4.0372666446855315E-9    3.586691288476127E-9     -3.224662156619042E-10   -3.75035804942158E-9     -2.568073637605642E-9    -1.1307750653340006E-9   -1.3848999279845603E-9   -2.1409156904412112E-9   -3.020954396787262E-9
4.2999999999999995E-5     1.1893880113523518E-9    1.0191713506066333E-9    3.502593950929023E-9     2.258292648602145E-9     -2.2826788904054364E-9   -6.246813817206193E-9    -5.693733071004028E-9    -1.057014260017829E-9    -1.1518593314349883E-9   -1.8206947861544329E-9   -1.5518822686819812E-9
4.35E-5                   1.3172517036814092E-9    1.0202434709083193E-9    2.7674950464969102E-9    6.288027068719246E-10    -4.4895217410543566E-9   -8.923457790170936E-9    -9.139704288959367E-9    -9.208947565379678E-10   -8.288255206914427E-10   -1.369256725411029E-9    2.2180582247513119E-10
4.4E-5                    1.4154592048658295E-9    9.795676799658802E-10    1.8213341505104462E-9    -1.2963824613722724E-9   -6.8985347615721766E-9   -1.1697823600674132E-8   -1.283617654803867E-8    -7.176376327302444E-10   -4.1328599748658523E-10  -7.824993714288915E-10   2.284665096380359E-9
4.45E-5                   1.47137141868687E-9      8.928961025653813E-10    6.51696248481328E-10     -3.5026965894800386E-9   -9.45197436422832E-9     -1.4474350364412397E-8   -1.668970895198974E-8    -4.4711965796829365E-10  9.3152374581175E-11      -6.300212656547772E-11   4.614361091307258E-9
4.4999999999999996E-5     1.4732103777720154E-9    7.552771735798564E-10    -7.501179959406909E-10   -5.962752518661314E-9    -1.2074107169102798E-8   -1.714695357145436E-8    -2.0574587444340452E-8   -1.1223691114817418E-10  6.840605320583801E-10    7.804122384674101E-10    7.178484478401529E-9
4.5499999999999995E-5     1.4093724334649522E-9    5.620803696317572E-10    -2.381319243884859E-9    -8.634134072302992E-9    -1.4668522304502571E-8   -1.959843784905546E-8    -2.433236207593056E-8    2.8263153812987954E-10   1.3480814779173519E-9    1.7334320013677122E-9    9.929782758207148E-9
4.6E-5                    1.268974516912832E-9     3.1033596520588334E-10   -4.220921240448966E-9    -1.1459270977057956E-8   -1.7122677492380484E-8   -2.1700058343378198E-8   -2.7780331612524E-8      7.316031522912436E-10    2.0694310520084577E-9    2.776519222812129E-9     1.2803472714950033E-8
4.65E-5                   1.0438543751750643E-9    -5.41098222037766E-13    -6.228005168280637E-9    -1.4366305993943204E-8   -1.9317970865689938E-8   -2.3315196048348198E-8   -3.0724499577561473E-8   1.22615569236187E-9      2.8283569855338264E-9    3.884560196031723E-9     1.571768742494518E-8
4.7E-5                    7.301081833765973E-10    -3.681575395346586E-10   -8.346375917616899E-9    -1.7269982837345626E-8   -2.1138616394338486E-8   -2.4307752008822704E-8   -3.297092589322064E-8    1.754264861035674E-9     3.601128616575644E-9     5.026451338405517E-9     1.8575858063066908E-8
4.7499999999999996E-5     3.2752370824339047E-10   -7.863514007512591E-10   -1.0512251190977551E-8   -2.0072937582205066E-8   -2.247532092850641E-8    -2.4552034096025675E-8   -3.433185548480812E-8    2.300462375490682E-9     4.3599664866778235E-9    6.165091585195013E-9     2.1269888802581663E-8
4.8E-5                    -1.6234937963534636E-10  -1.2450124397607574E-9   -1.2659221668917524E-8   -2.2668370340237948E-8   -2.3225289890868564E-8   -2.3940258390666538E-8   -3.4628707983872153E-8   2.8463343573238697E-9    5.073561390236752E-9     7.257761503051685E-9     2.368358488232227E-8
4.85E-5                   -7.370416803521589E-10   -1.731234460953604E-9    -1.4717749981797976E-8   -2.4943990516165058E-8   -2.329184147575886E-8    -2.2386625854457314E-8   -3.3697805876633634E-8   3.370826585049582E-9     5.7081966972110675E-9    8.256786294217393E-9     2.5695720474273213E-8