% Model:              analysis.mph
% Version:            COMSOL 6.0.0.405
% Date:               Jul 24 2023, 14:07
% Dimension:          1
% Nodes:              10001
% Expressions:        11
% Description:        Point graph
% Time (s)                Displacement field, Y component Displacement field, Y component Displacement field, Y component Displacement field, Y component Displacement field, Y component Displacement field, Y component Displacement field, Y component Displacement field, Y component Displacement field, Y component Displacement field, Y component Displacement field, Y component
0                         0                        0                        0                        0                        0                        0                        0                        0                        0                        0                        0
1.0E-6                    -6.1969602300775045E-46  -6.278636962235295E-45   -4.1829373734922126E-44  -1.3202229678892316E-43  -1.3437857103835125E-43  -1.4178170230716296E-43  -4.1664825228670714E-43  -5.882376947300069E-43   -6.230723428001087E-44   -3.2814276910750363E-45  -4.377356703512002E-46
2.0E-6                    3.789798485806611E-45    3.890140990168587E-44    2.3680446561288416E-43   8.782641515921963E-43    1.4429314782954268E-42   1.978015456210334E-42    5.1896948984168384E-42   4.2343068982490734E-42   4.668760298334047E-43    3.6085161623561645E-44   3.433775205064062E-45
3.0E-6                    -8.957638886069802E-45   -7.29093720375347E-44    -1.7648787223559774E-43  -1.3142967476271161E-42  -6.234718207122313E-42   -1.2683075695021626E-41  -3.180822756298965E-41   -1.125742746931569E-41   -1.7879610511136586E-42  -2.9492299062487076E-43  -3.104351674456461E-44
4.0E-6                    -2.628249353376997E-45   -1.9536427931160967E-43  -1.7983578520594014E-42  -3.859241326071562E-42   6.81972575953614E-42     3.5932450503465336E-41   7.986360513035583E-41    9.464535594822848E-43    3.4441882016200126E-42   1.2923643874425106E-42   1.988927118500318E-43
4.9999999999999996E-6     7.261951489730077E-44    9.610780481374584E-43    2.7160800160683873E-42   1.0238846568639287E-41   2.5996465501859494E-41   -1.0249463638490132E-41  7.527542579958788E-41    6.952992366764275E-41    5.924937754852406E-44    -2.4459147647366343E-42  -6.662801564062855E-43
6.0E-6                    -1.1825529186565174E-43  2.0552455590859017E-43   7.40985707770732E-42     5.816529587046174E-42    -6.983181687706053E-41   -2.7001192318045253E-40  -8.972949137648744E-40   -2.0787451994718767E-40  -2.802365329837519E-41   -2.3761590923464778E-42  3.868264444809319E-43
7.0E-6                    -1.927512760447696E-43   -5.1541661679122744E-42  -9.26354663095965E-42    -1.202518769085422E-41   -7.735922081797291E-42   8.021748746608235E-40    1.1678426093662849E-39   9.120158827339341E-41    8.339638242622769E-41    2.1099591401044628E-41   4.463865824941681E-42
8.0E-6                    5.130978835961994E-43    -1.1285051891407474E-42  -3.2479255932761855E-41  -4.2605578540138514E-41  7.519784643307934E-41    1.131968143792997E-40    3.7976656796280944E-39   1.2355409807259758E-39   1.2753470607308297E-41   -3.422447837421152E-41   -1.2144464944047784E-41
9.0E-6                    3.78199524342557E-43     2.1032204988630846E-41   2.153176229724599E-41    -7.139739227791868E-41   1.1295857078347504E-40   -5.2660553758843274E-39  -1.0289614235742153E-38  -2.1651513195528188E-39  -4.574763232256347E-40   -2.263113330280542E-41   -4.377481155604899E-42
9.999999999999999E-6      -1.1072251424163354E-42  1.685963284238242E-41    1.4073050126767181E-40   2.6490627322939586E-40   7.431116134871366E-40    6.291768012186156E-39    -9.84967101050636E-39    -4.8577799518765793E-39  4.227667148726232E-40    1.8674335486862878E-40   6.55717037848487E-41
1.1E-5                    -1.2117849213688156E-42  -6.42651051387702E-41    -3.972824409046322E-41   4.853130737542176E-40    -1.9013984867815235E-39  2.167040825143991E-38    5.156551361635984E-38    1.2499846023011598E-38   1.3621003638317195E-39   -2.7858380159417586E-40  -5.456266116625824E-41
1.2E-5                    3.138758574153506E-42    -1.1198537073851437E-40  -5.368651104914327E-40   -6.717861253983049E-40   -4.46755169695904E-39    -4.653779819019695E-38   1.7882478481267348E-38   1.70096788356654E-38     -2.491984536169738E-39   -3.233084118998761E-40   -2.12861672179235E-40
1.3E-5                    8.888822474231624E-42    1.1976563040274737E-40   -1.0808872105895771E-40  -1.775573731110858E-39   9.715701275077102E-39    -7.40349275837449E-38    -2.065048382798599E-37   -5.120824877828723E-38   -2.6911851024124532E-39  1.846466384319037E-39    3.6273258141031977E-40
1.4E-5                    -1.9838628646371756E-41  4.538970805006422E-40    1.4428020987203858E-39   -9.271995820263376E-40   1.3455947330034352E-38   2.2106201480415677E-37   -3.6779281914664546E-38  -6.231042554822063E-38   9.495682565138354E-39    -9.70401934412976E-40    5.2351751191332865E-40
1.4999999999999999E-5     -7.148320522640877E-41   -4.0120353472617365E-41  1.2877226789517526E-39   3.7199525635662904E-39   -2.6114530122145827E-38  2.5011662456317486E-37   7.261879927136606E-37    1.7307159331690147E-37   3.764673566444517E-39    -6.912642393171861E-39   -1.4523712795617279E-39
1.6E-5                    8.901677108304631E-41    -1.3270049353369328E-39  -1.3363076384586215E-39  1.6066216841020605E-38   -1.318248880767717E-38   -8.351571169077747E-37   2.024127863706755E-37    2.519686192162998E-37    -2.9699832447250856E-38  9.594982891566075E-39    -1.2672873050703973E-39
1.7E-5                    4.216451535877581E-40    -4.149064155564759E-40   -3.684421220902757E-39   3.021468197026894E-39    2.929575268336114E-38    -9.139462401124195E-37   -2.2529970719118614E-36  -4.6363177975486414E-37  -4.470277004989087E-39   1.8868240690049769E-38   4.8581771622535316E-39
1.8E-5                    -1.7672418335752722E-40  3.5511996934485504E-39   -5.8315946646557935E-39  -8.390453122655516E-38   -1.2378789495748242E-37  2.6373483583275967E-36   -1.281586003731511E-36   -9.88865083447931E-37    8.421565593205516E-38    -4.476073795641781E-38   4.771223412260105E-39
1.8999999999999998E-5     -1.7769645792768967E-39  1.527696414917346E-39    -6.120251410287837E-40   -7.880397937042291E-38   4.326457925989107E-38    3.4714465007487634E-36   5.9429179888643635E-36   7.714942464248962E-37    1.1569130829974656E-38   -3.739429746342083E-38   -1.5033803724024398E-38
1.9999999999999998E-5     -2.9726490396318095E-40  -1.0708543428147335E-38  2.3694079824858803E-38   2.9222879618770534E-37   9.807026630112874E-37    -6.861910865790922E-36   6.025344677779555E-36    3.1787395636912576E-36   -2.3654214241976524E-37  1.659833840405397E-37    -2.5924233638232667E-38
2.1E-5                    5.6738656147749774E-39   -6.919594662152073E-39   2.462257759581534E-38    4.91887063168127E-37     -5.591943646001113E-38   -1.2462549836344902E-35  -1.252347935543738E-35   2.5236922914177633E-37   -8.104709334574355E-38   4.0836630947395577E-38   4.050156977118121E-38
2.2E-5                    3.594312483420975E-39    3.0282127942079327E-38   -4.809645705134206E-38   -6.509137785985795E-37   -4.4046957905254276E-36  1.3450308013489905E-35   -2.1431798844313923E-35  -7.462114443190307E-36   6.706544654836465E-37    -5.595360371536656E-37   1.3212063887990019E-37
2.3E-5                    -1.4886344237247326E-38  3.3051222482473017E-38   -4.5386640356402967E-38  -2.0138174841918382E-36  -1.761142597728147E-36   3.9289936677060975E-35   1.811224573374214E-35    -6.300677252275884E-36   5.177647545863147E-37    3.3009366199289907E-38   -7.156648275027966E-38
2.4E-5                    -1.663653563577643E-38   -6.012198950637138E-38   1.7178816970855009E-37   3.215378974692598E-37    1.4339399269626629E-35   -1.2875264920871524E-35  5.998529347616359E-35    1.1090628423913656E-35   -1.75663625968776E-36    1.7628907931111188E-36   -5.470960277624472E-37
2.4999999999999998E-5     3.3796432409574197E-38   -1.0155568502966733E-37  7.977008439353663E-38    5.59005404520449E-36     1.3516537089735082E-35   -1.0317785144971317E-34  -3.762313310159142E-36   2.1695817254392996E-35   -2.4533010296645415E-36  -2.246729567839912E-37   -4.891103972326181E-38
2.6E-5                    6.137202066775082E-38    7.823991127747639E-38    -7.930026381589811E-37   3.868487103302729E-36    -3.40701464234502E-35    -3.4747679957244155E-35  -1.3245541962092758E-34  -4.160369219420213E-36   3.751961587894031E-36    -5.0620488861441657E-36  1.8247515506915752E-36
2.7E-5                    -5.972292994287682E-38   1.89907068146187E-37     -7.567125643964003E-37   -9.272855062506371E-36   -5.873147168688921E-35   2.110879329331615E-34    -8.077788257006026E-35   -4.3759444715954807E-35  8.935950454061275E-36    3.535179069491357E-37    1.0424563586956193E-36
2.8E-5                    -1.968700632962734E-37   -1.478199909467729E-37   2.2675196621887052E-36   -1.6261736668384097E-35  4.92143871680107E-35     2.2637287180500062E-34   2.1481241749323572E-34   -2.802323325401286E-35   -5.3124625469971026E-36  1.3094906034940458E-35   -4.9777792809262564E-36
2.9E-5                    3.245688865294725E-38    -3.248408045219454E-37   4.094848247983085E-36    2.9374217811163986E-36   1.790623246417426E-34    -2.8205935056344945E-34  3.167326766792198E-34    5.27023398454213E-35     -2.6159993264127025E-35  -6.525830723022514E-39   -5.1990222865982354E-36
2.9999999999999997E-5     5.159113806378657E-37    5.515307769472405E-37    -3.31644593649005E-36    3.1623002155814905E-35   1.5916038645173415E-35   -6.898275218223821E-34   -1.7639022268171E-34     9.038325750864367E-35    -6.235816796388641E-37   -3.186461381361171E-35   1.117131676354372E-35
3.1E-5                    2.826006110754825E-37    1.1396236994829014E-36   -1.326050000841414E-35   2.6866854435007356E-35   -3.888649534788771E-34   1.1594508114728986E-35   -7.301603135774481E-34   -9.501063572587756E-36   6.299923332004163E-35    -1.9346186152992127E-36  1.8523371220930275E-35
3.2E-5                    -9.99617146664852E-37    -1.0856576896484435E-36  -1.323758724597225E-36   -1.9282189109856165E-35  -3.421655317832107E-34   1.3685958488022362E-33   -2.6407458127085497E-34  -1.5034981629926907E-34  3.5448457121952947E-35   7.779238665472751E-35    -1.9601932327556303E-35
3.2999999999999996E-5     -1.3692876233739439E-36  -3.9945192387336695E-36  3.109140558770459E-35    -6.269757789838654E-35   5.218955565390441E-34    1.1586318504481467E-33   1.0637118359605121E-33   -1.1839839315773013E-34  -1.2316968295178786E-34  1.6649446650033807E-35   -5.462566965573046E-35
3.4E-5                    1.1548137492457592E-36   -8.331508914238148E-37   2.555938524822251E-35    -5.953461059844861E-35   1.121035010767621E-33    -1.539823123601729E-33   1.3365648314298845E-33   1.135787027820952E-34    -1.4825432753063814E-34  -1.868025955734046E-34   1.8846902821546752E-35
3.5E-5                    3.711446983275414E-36    7.990843154959593E-36    -5.330080861954122E-35   9.611526722029393E-36    -2.811773436889736E-35   -3.514451921747604E-33   -6.016254059462189E-34   2.7492460045068985E-34   1.7413100637716585E-34   -1.0187166207486195E-34  1.3694051632080327E-34
3.6E-5                    3.3748564886581287E-37   9.220649201224342E-36    -9.975858893563698E-35   1.4746121870745191E-34   -2.1082762395278656E-33  -4.97869334866798E-34    -2.6272398506721167E-33  1.1275581893857878E-34   4.169309488290587E-34    3.8938952054248075E-34   3.7543604107987693E-35
3.7E-5                    -7.096882650073613E-36   -5.341664107895438E-36   3.851154933363045E-35    2.5252853002892292E-34   -1.8698328890058557E-33  5.6471543340940316E-33   -1.386845085220714E-33   -2.45558726007516E-34    -6.815300289561428E-35   4.138278961533558E-34    -2.787427824492958E-34
3.7999999999999995E-5     -5.5485957845331636E-36  -2.011480886198904E-35   2.511621893956804E-34    5.42662748890246E-35     1.9531269203187677E-33   6.22771084314887E-33     2.615961042317686E-33    -3.982261841829518E-34   -8.518850675381714E-34   -5.896773464842861E-34   -2.6955836853335635E-34
3.9E-5                    9.830775820983823E-36    -1.2728979766051919E-35  1.395684518418422E-34    -5.473151029974665E-34   5.025351572389852E-33    -3.293813455447101E-33   4.308587465184966E-33    -1.391216872112335E-34   -5.20202387704131E-34    -1.1622472000696083E-33  3.915928726893707E-34
3.9999999999999996E-5     1.6991054906491184E-35   1.2702379510082318E-35   -3.917042183437549E-34   -9.239627130719064E-34   1.5763226418662898E-33   -1.3194673440481403E-32  3.918509450164063E-34    3.0633648376526758E-34   1.0796686780007149E-33   3.8361030876844827E-34   8.576051458968136E-34
4.1E-5                    -7.74718978287574E-36    3.1302728161884905E-35   -6.432120111850808E-34   -3.9640410336305024E-35  -6.559543951921363E-33   -7.925470948367264E-33   -5.236552178141746E-33   5.342528583340788E-34    1.7717779571760398E-33   2.3136126246622776E-33   -8.667469216593483E-35
4.2E-5                    -3.772264721088129E-35   3.0453056361121005E-35   1.498587524426689E-34    1.9205354573402316E-33   -8.843683959531943E-33   1.194709049626681E-32    -5.456843733795845E-33   3.3385597310205986E-34   -1.3040010739211774E-34  9.374863960982332E-34    -1.7795978490510397E-33
4.2999999999999995E-5     -9.76547027082344E-36    4.436959744467932E-36    1.3493046286543411E-33   2.563427015431958E-33    1.2903359312704085E-33   2.3634145430649997E-32   9.055974929098406E-34    -1.9691845478715053E-34  -2.7083679688277062E-33  -3.0764465088385798E-33  -1.4660168977939005E-33
4.4E-5                    6.826827449342943E-35    -6.31761010906725E-35    1.0351407285747711E-33   -4.73183752412777E-34    1.4187509626172364E-32   7.369294963122124E-33    7.080946019395628E-33    -7.2527668065218695E-34  -2.425165769365245E-33   -3.8813069640399515E-33  2.0490772185884752E-33
4.4999999999999996E-5     6.943174921935385E-35    -1.350104967514432E-34   -1.3615634495874772E-33  -5.349605737355561E-33   1.2011710676861206E-32   -2.4542396962007608E-32  6.472857190382729E-33    -8.043171234906813E-34   9.369139108723425E-34    1.4325874106853215E-33   4.9236229275380434E-33
4.6E-5                    -8.46112302551457E-35    -6.082995307867539E-35   -3.1044562578117956E-33  -5.7675481678111145E-33  -7.454278156530415E-33   -3.5680801293686925E-32  -6.554467895884686E-35   -1.5843976644351032E-34  3.844276398439011E-33    7.3420654824572E-33      1.210744276987659E-33
4.7E-5                    -2.1078093101325203E-34  2.362305611724738E-34    -8.314029087917798E-34   2.0760085616741928E-33   -2.2551263053412053E-32  -7.267111247524061E-33   -6.626429885698021E-33   9.021346965605592E-34    3.666018639041476E-33    5.482829764145297E-33    -8.254133540063187E-33
4.8E-5                    -1.414322602706878E-35   4.4981100304172254E-34   4.124277519878133E-33    1.1941817336471974E-32   -1.249071786633965E-32   3.6185813124024444E-32   -8.929075767332584E-33   1.4744429769390828E-33   8.588050028199934E-34    -5.7900876295763575E-33  -1.1535482884353263E-32
4.9E-5                    4.046031759401838E-34    7.04235970445423E-35     5.4113676830443856E-33   1.1020001782857987E-32   1.358863454309179E-32    5.038322914220399E-32    -5.90339147906863E-33    8.265592437975235E-34    -3.6509915870459E-33     -1.6992629474783912E-32  2.9683642215087862E-33
4.9999999999999996E-5     4.123214588447414E-34    -7.927367406058758E-34   -6.980886500636258E-34   -4.934686122203855E-33   2.5452300221042804E-32   1.681625404510899E-32    2.3284480302649235E-33   -7.241858294648343E-34   -8.764768106990226E-33   -1.139919361179975E-32   2.5499198172236793E-32
5.1E-5                    -3.6286100236700512E-34  -1.0471070401387453E-33  -8.473338805655303E-33   -2.1702834736558082E-32  1.08122013259438E-32     -3.9612190390351834E-32  1.287952956110197E-32    -1.932933475584291E-33   -9.28439045857974E-33    1.7769242084960704E-32   2.3352971508662348E-32
5.2E-5                    -1.1235904630975426E-33  1.9146694432144305E-34   -7.6249360054668E-33     -1.8424563093851636E-32  -1.0004326645619698E-32  -7.26264316222504E-32    1.7428821652728393E-32   -1.791747341604065E-33   1.818307736962384E-33    4.485230967491948E-32    -2.0709828179427665E-32
5.3E-5                    -4.926298482470907E-34   1.935746891355099E-33    3.527097757592694E-33    7.518103987523377E-33    -1.5583284663173208E-32  -4.9066442122396897E-32  7.768491638110187E-33    -4.469099247913757E-34   2.0850734362025287E-32   2.3151371492641947E-32   -6.532161091835024E-32
5.4E-5                    1.446063787113164E-33    1.8360062124232997E-33   1.344825988362951E-32    3.2209136871082195E-32   -1.2057982283497902E-32  2.666612536894814E-32    -1.2822326134149483E-32  1.1128214896894754E-33   2.7908024538183144E-32   -5.21215356066723E-32    -3.6991210909217063E-32
5.4999999999999995E-5     2.3292010638771772E-33   -8.418847548023137E-34   9.651474799620033E-33    2.808519337057588E-32    -1.355255910349472E-32   1.0476524057598715E-31   -2.813783006291918E-32   2.0094682927253752E-33   5.348741088272546E-33    -1.0268541218970209E-31  6.853560495216092E-32
5.6E-5                    6.86888246172107E-35     -3.478948105554823E-33   -5.974104588242187E-33   -5.3694865315071065E-33  -9.701330401684805E-33   1.1223952053205102E-31   -2.3743383399794718E-32  1.9027584723176774E-33   -3.5733464700608275E-32  -3.895140551239058E-32   1.3537485541235957E-31
5.6999999999999996E-5     -3.6066774428216435E-33  -2.7275387213405215E-33  -1.8012143547890064E-32  -3.871139819768453E-32   1.8119226145108365E-32   1.3598915584999463E-32   -1.7333805391125886E-33  8.269270533656942E-34    -5.73479361984971E-32    1.1056007946390761E-31   4.328259665887593E-32
5.8E-5                    -3.887101292635826E-33   1.239830193869486E-33    -1.366282467137425E-32   -4.1027699701293123E-32  5.22409443477747E-32     -1.3213820692142485E-31  2.2238615408501645E-32   -7.902107483200511E-34   -3.095633108129811E-32   1.900036182967593E-31    -1.516645811795786E-31
5.9E-5                    1.2466168480497058E-33   4.596649267651846E-33    4.833533634807694E-33    -8.215218081509343E-33   4.577246313549136E-32    -1.9536060805529328E-31  3.431965876910581E-32    -1.971208771723218E-33   3.1048507420767293E-32   7.95767030196228E-32     -2.2695960094057635E-31
5.9999999999999995E-5     6.870243411187257E-33    4.230669104909599E-33    2.2931072002735533E-32   3.536262381782962E-32    -1.3077117782964853E-32  -9.245785562861291E-32   3.0596127246054666E-32   -1.8097534942144908E-33  8.457708118795257E-32    -1.5194406263620156E-31  -4.8421965267581197E-32
6.1E-5                    5.54149563759258E-33     6.130849071358025E-34    2.484615675930432E-32    5.674498824606259E-32    -7.304807818052087E-32   1.1306096109065776E-31   1.2785712842819428E-32   -7.292485106053801E-34   9.013106577170929E-32    -2.9539426551525924E-31  2.309873098107268E-31
6.2E-5                    -3.289603793461411E-33   -4.0305183919765645E-33  3.791697461909526E-33    3.666083201533551E-32    -7.804249278908152E-32   2.4889149559650485E-31   -1.5432706614535987E-32  -6.1000066478511905E-34  3.6545636828933034E-32   -1.995861353380938E-31   3.1590758359963934E-31
6.3E-5                    -1.0690872485523477E-32  -7.73842032011645E-33    -2.9907827187254636E-32  -1.6007526865641513E-32  -3.1415499427612237E-32  1.926159697921313E-31    -4.4755322569242586E-32  -2.828792542436893E-33   -5.898788298999595E-32   8.990332773782742E-32    1.0345593971105234E-31
6.4E-5                    -7.489431115449721E-33   -7.466951097615714E-33   -4.8215919724757916E-32  -6.43883802100855E-32    2.3235584527545797E-32   -1.1384923665603262E-32  -5.996029148228891E-32   -6.1446965402700154E-33  -1.5516203247813495E-31  3.668936254853228E-31    -2.1124303070942675E-31
6.5E-5                    4.707895372760729E-33    4.7841202965533965E-34   -2.4534519691304368E-32  -6.766342173364198E-32   6.451151796945392E-32    -1.9911566205380595E-31  -5.027690837868524E-32   -7.248723395174754E-33   -1.9037532517128348E-31  4.180418330284507E-31    -3.66888140997532E-31
6.599999999999999E-5      1.418498616003477E-32    1.3777407006101424E-32   3.407912504946968E-32    -1.9170023999549693E-32  9.773285889535507E-32    -2.4006989011501037E-31  -1.8255096965243962E-32  -3.775178214088714E-33   -1.083387161936993E-31   1.7220820149065895E-31   -2.758373433579534E-31
6.7E-5                    1.1080544251934794E-32   2.0056687154920495E-32   7.87127474481598E-32     4.0504626158661E-32      1.0542198133981669E-31   -1.3600833919692328E-31  2.5865208274913137E-32   3.589247342942252E-33    9.003306888506651E-32    -2.450044362039144E-31   -1.3066335728256881E-32
6.8E-5                    -2.921136512941111E-33   7.471916266959012E-33    5.957382909643067E-32    6.096523202484964E-32    4.334577903321013E-32    1.1244497650856214E-32   7.438295301551422E-32    1.2100391186918774E-32   3.1153905472139615E-31   -5.824839147624666E-31   3.0168518092528158E-31
6.9E-5                    -1.6560355582637683E-32  -1.8086813857863386E-32  -1.831627346392842E-32   3.521268358538216E-32    -9.173844464887634E-32   9.943271783260168E-32    1.1784234316226414E-31   1.9252058421230285E-32   4.04732464911494E-31     -6.145846038434977E-31   5.157892711965653E-31
7.0E-5                    -1.8386409147508123E-32  -3.331695678578063E-32   -9.074330397390908E-32   4.4528233004574724E-33   -2.215031765892052E-31   9.664023269154326E-32    1.3143349129379117E-31   2.3335436495153298E-32   2.6034516898038567E-31   -2.7398245526826893E-31  4.4407319486614216E-31
7.099999999999999E-5      -4.781357772755277E-33   -2.1050737738183852E-32  -9.4855193430653E-32     4.724291198725748E-33    -2.4522626563881674E-31  4.944114362456853E-32    7.977891746126312E-32    2.2345863915341903E-32   -9.341756522369817E-32   3.0468291788150424E-31   2.514547029730677E-32
7.2E-5                    1.6636006862794106E-32   1.0079852986054896E-32   -2.9905154821898015E-32  2.0240713824482593E-32   -1.3181993897668743E-31  3.979425528882676E-32    -5.122887992550372E-32   1.395632810094269E-32    -4.844267089236002E-31   8.378708209597079E-31    -5.205866301034413E-31
7.3E-5                    2.9339083510212856E-32   3.484245340243151E-32    4.792015059300716E-32    2.5980343542582723E-33   6.27787361276813E-32     1.096139492898362E-31    -2.26355706093047E-31    -2.5199877803105462E-33  -6.966818433469388E-31   1.0210118370793665E-30   -8.136371273310805E-31
7.4E-5                    1.8901465718365797E-32   3.6598795047524173E-32   8.402867438506772E-32    -6.634377858219945E-32   2.5159226673823627E-31   1.9862608067618504E-31   -3.7104818770172348E-31  -2.4551434050030866E-32  -6.022564977314101E-31   6.89922162599729E-31     -6.4071030760018185E-31
7.5E-5                    -1.1471397751965967E-32  1.730543756147952E-32    6.880847000646117E-32    -1.4240088465042402E-31  3.606645617868926E-31    1.6373601308884645E-31   -4.125422012596118E-31   -4.7214149226593467E-32  -2.2261755252188516E-31  -7.158038316963286E-32   -1.073221886824306E-31
7.599999999999999E-5      -3.764775481360365E-32   -1.2063737188560381E-32  2.8805421664361876E-32   -1.5402191735051006E-31  3.2977114284561223E-31   -1.137470352269291E-31   -3.131956476388202E-31   -6.515756848072438E-32   3.0995423083372636E-31   -9.634791116004894E-31   5.146062657941868E-31
7.7E-5                    -3.4547477577237994E-32  -3.9079762642139716E-32  -7.292959200751122E-33   -6.580066135570351E-32   1.2068700249353368E-31   -6.296268507712685E-31   -7.48530887143163E-32    -7.344778630681718E-32   8.250759329423745E-31    -1.6154413425639964E-30  9.882467558520634E-31
7.8E-5                    -2.5550016771177147E-33  -4.8962596281527207E-32  -2.7604128339941587E-32  9.141017187094137E-32    -2.406562007955785E-31   -1.255309291800274E-30   2.6964734778663893E-31   -6.754025432231997E-32   1.1520916613819226E-30   -1.7229210884643584E-30  1.1480010864791767E-30
7.9E-5                    3.0875084713064105E-32   -3.1268564277985676E-32  -3.5802971044210976E-32  2.428495017700083E-31    -6.422238683817348E-31   -1.792249495508776E-30   6.571986017631874E-31    -4.419218855603863E-32   1.1351434923851268E-30   -1.114607673474821E-30   8.6274303131778E-31
7.999999999999999E-5      3.920698287757661E-32    5.7447087173738596E-33   -4.4766182486925285E-32  3.122833312776746E-31    -9.363950419853483E-31   -1.9882504316259665E-30  9.941258973582567E-31    -3.297206556708186E-33   6.764718046251192E-31    1.7898797954106138E-31   8.208433406118029E-32
8.099999999999999E-5      2.1843133749842098E-32   3.812767692303419E-32    -6.612266841110113E-32   2.4746015404100264E-31   -1.0270986842780169E-30  -1.5452996583131815E-30  1.174788186076843E-30    5.113046977898025E-32    -2.0174880110253876E-31  1.8259437201559934E-30   -1.0543332582549205E-30
8.2E-5                    -2.361946773126385E-33   5.108637001671335E-32    -9.112321126347099E-32   2.889478392288938E-32    -9.075935447392192E-31   -2.470257666353439E-31   1.1186659983148629E-30   1.1133138624901568E-31   -1.3415459439512121E-30  3.195635150826934E-30    -2.1474554887042288E-30
8.3E-5                    -1.9605362812916357E-32  5.055487591431741E-32    -8.201885440697309E-32   -3.137046549987367E-31   -6.142115375797185E-31   1.809731191791222E-30    8.025701372750576E-31    1.6643400801777942E-31   -2.493032491977238E-30   3.5807249084083415E-30   -2.5917345057737455E-30
8.4E-5                    -2.9439035871424766E-32  4.172330686091002E-32    -1.9100811559784692E-33  -6.80550958154153E-31    -1.4706772616167486E-31  4.121291200726248E-30    2.6824403947608155E-31   2.032891953289883E-31    -3.353803972644048E-30   2.5244171289442234E-30   -1.8409411185566177E-30
8.499999999999999E-5      -3.163348020509243E-32   1.1063969199780456E-32   1.3258647331371665E-31   -9.196670977340235E-31   5.584508392836986E-31    6.004652571296448E-30    -3.9526360285587145E-31  2.0870342449705622E-31   -3.572431915689395E-30   4.099891713135781E-32    1.5160118481138556E-31
8.599999999999999E-5      -1.913957547848328E-32   -5.03101777059665E-32    2.3915707890504528E-31   -9.039264976910015E-31   1.5646676018990709E-30   6.972826546991752E-30    -1.0841111953787211E-30  1.7261205516791396E-31   -2.789500162823442E-30   -3.321540235297834E-30   2.675840731231274E-30
8.7E-5                    8.712404745457401E-33    -1.129941333436362E-31   2.312638395937464E-31    -6.084460333938376E-31   2.8055549838977366E-30   6.883842736716517E-30    -1.7141154368010292E-30  8.99891598243341E-32     -7.8906077765963E-31     -6.545895342876165E-30   4.566971146693592E-30
8.8E-5                    3.510705367989468E-32    -1.2543887046076228E-31  9.460281795701499E-32    -1.0462685197412598E-31  4.008471359327982E-30    5.7529418282841496E-30   -2.2408836471519395E-30  -3.8586241900024603E-32  2.308549536114804E-30    -8.43130132212311E-30    4.8826646895257005E-30
8.9E-5                    3.937829545780752E-32    -6.983052354284202E-32   -1.1081687495545422E-31  5.222227617727547E-31    4.7591084129080136E-30   3.524951689063233E-30    -2.6528993120720055E-30  -2.0502728225544135E-31  5.978043869665644E-30    -8.129044843726031E-30   3.320221703296507E-30
8.999999999999999E-5      2.0423460604638026E-32   1.8024257105298994E-32   -3.210417496959288E-31   1.226550381133133E-30    4.6887207719923945E-30   1.1278503658790295E-31   -2.9435470517470067E-30  -3.902254906292545E-31   9.417294728910822E-30    -5.583582693845262E-30   1.2134816316060228E-31
9.099999999999999E-5      -2.1525270413110112E-33  9.257984734283494E-32    -5.116948390733909E-31   1.961184883573416E-30    3.6397770755303035E-30   -4.374842130507431E-30   -3.085086218933438E-30   -5.634251444787286E-31   1.1774367514993687E-29   -1.4649547612326452E-30  -4.105406882617087E-30
9.2E-5                    -1.096569982480061E-32   1.4108881975723477E-31   -6.572927103312225E-31   2.6077446099726742E-30   1.6795565961139308E-30   -9.519416164889937E-30   -3.020596819071864E-30   -6.877808026279046E-31   1.2332746136902261E-29   3.288841562058557E-30    -8.306659786880094E-30
9.3E-5                    -7.782371559154833E-33   1.6671870000766542E-31   -6.784957971703304E-31   2.983776315697667E-30    -1.0157391460783402E-30  -1.468402768778757E-29   -2.6687436188650162E-30  -7.287644849200257E-31   1.0616080106017878E-29   7.798883083888794E-30    -1.1011388913340834E-29
9.4E-5                    -6.430951451823338E-33   1.4968576206961987E-31   -4.7310217033150935E-31  2.919598545475184E-30    -4.2606737391929916E-30  -1.913279678349654E-29   -1.9309076882847943E-30  -6.6010778323749884E-31  6.460049407510206E-30    1.1281280915278319E-29   -1.0915329741691092E-29
9.499999999999999E-5      -1.657819573645847E-32   5.680230977504427E-32    -3.339687991718933E-33   2.3081633233211484E-30   -7.844297777322827E-30   -2.2080193544032354E-29  -7.045963113351184E-31   -4.676390433523851E-31   7.261597736004224E-32    1.3141195133676662E-29   -7.68759632784886E-30
9.6E-5                    -3.7399759604960305E-32  -1.0893866614309251E-31  6.698366866030196E-31    1.0995391936263208E-30   -1.1442896037444556E-29  -2.2790787861429904E-29  1.086132662502574E-30    -1.5475118628940538E-31  -7.962081167190236E-30   1.3274271182027606E-29   -2.1726358104673525E-30
9.7E-5                    -5.841793207718802E-32   -2.909268488597518E-31   1.4292797435564997E-30   -6.829600633323058E-31   -1.4569861462115574E-29  -2.0782325243901642E-29  3.446578121581187E-30    2.5205740784867294E-31   -1.6775085139416433E-29  1.2184793740210236E-29   4.240873367779972E-30