% Model:              Untitled.mph
% Version:            COMSOL 6.0.0.405
% Date:               Jul 15 2025, 18:38
% Dimension:          1
% Nodes:              401
% Expressions:        11
% Description:        Point graph
% Time (s)                Displacement field, Y component Displacement field, Y component Displacement field, Y component Displacement field, Y component Displacement field, Y component Displacement field, Y component Displacement field, Y component Displacement field, Y component Displacement field, Y component Displacement field, Y component Displacement field, Y component
0                         1.9902539985872375E-35   -8.201802691301638E-36   -1.0818285673517668E-35  -1.3953885207379616E-33  4.646359827023606E-32    2.0592416853100487E-31   1.3683310975376133E-32   6.924400980233342E-33    -4.386156040170133E-33   -3.0799876230297167E-31  -1.2225345234057356E-32
5.0E-7                    -2.1624642813696968E-27  -4.0241562451792354E-26  -2.0985044962296546E-25  -2.088510785370088E-25   -8.467466854505048E-24   -1.5837521530077786E-22  -1.2849057934789087E-23  2.8285345966889596E-24   -2.4655280597207934E-24  6.241588664714484E-23    2.9898826087898303E-24
1.0E-6                    5.7223558618368764E-27   4.729666367752482E-25    9.353525246798148E-25    9.743435473357136E-25    2.7851054975945683E-23   7.031161194303834E-22    6.199275778270317E-23    -2.3604594458448855E-23  -7.927837923069003E-23   -1.445654912166647E-22   -2.1833642733801782E-23
1.5E-6                    -4.437862191770717E-26   -1.6808822740969238E-24  4.865714966457993E-24    -5.304256331399888E-25   1.4021388548123804E-23   1.2665134386138343E-21   2.5458263257925133E-22   -5.333451640215705E-22   8.586854726811649E-23    -7.449115316706147E-23   -5.060116225172835E-23
2.0E-6                    -9.833770791465767E-26   7.347529075871377E-25    -1.9191784464082874E-23  9.607534318431557E-23    -7.425058019115232E-22   -1.42475127043067E-20    -9.091594988736393E-23   2.4492806071457156E-21   1.5617153366105516E-21   -2.1806689763968024E-22  2.3982038904390094E-22
2.4999999999999998E-6     9.883828438842182E-25    9.314302485158946E-24    -7.416088438730026E-23   -4.0128036904997643E-22  1.700791065140413E-21    1.422012514719778E-20    -7.961057854897919E-21   3.776083718316406E-21    -1.664491849484952E-22   7.745908664750192E-21    1.2965106474607097E-21
3.0E-6                    -2.7319454786114676E-24  -8.782948848469552E-24   2.9192063727784035E-22   -9.05907397241285E-22    6.298767580143573E-21    8.304003218617486E-20    -2.121310662080584E-21   -3.502653057355612E-20   -1.2968160186448008E-20  -9.788033704344494E-21   -1.620259379434749E-21
3.5E-6                    -2.2863705387685063E-24  -5.341327000361517E-23   5.7274276589353205E-22   5.138000901259968E-21    -2.3987915635013468E-20  -1.550394242451004E-19   7.379155620315677E-20    -4.1138272946908173E-20  -2.062442120803048E-20   -5.781811501932928E-20   -3.391941094094274E-23
4.0E-6                    2.471499115347547E-23    1.316381258321428E-23    -2.2755090995015586E-21  7.13775519099419E-21     -3.42588385803596E-20    -4.296046640075779E-19   4.684631000213926E-20    2.82376260349029E-19     4.9220001728071843E-20   1.1162781469142933E-19   4.6898594741559355E-20
4.5E-6                    6.169616535788131E-24    4.297604464529321E-22    -3.708619371929904E-21   -3.830467940258837E-20   1.9781197032526283E-19   1.3341687742605343E-18   -4.184399289718924E-19   5.862462588022975E-19    2.097177227438219E-19    8.139126951264487E-20    -1.0083990679518327E-20
4.9999999999999996E-6     -1.648312747296614E-22   1.0516249138012695E-22   1.120826666048635E-20    -5.550073332572757E-20   1.4897520282201228E-19   2.3026068378783743E-18   -6.106820999541242E-19   -1.1539030795082972E-18  4.991015531802488E-20    -1.2509671768000024E-19  -5.6531339163221285E-19
5.5E-6                    -1.9191034162354604E-22  -2.8418954583535762E-21  2.2717022438301962E-20   1.9967802523282697E-19   -1.1881026712614837E-18  -1.0049573991108144E-17  1.2175147817085695E-18   -5.040064986528614E-18   -8.760722583687588E-19   2.6299071710955505E-19   -6.910419224771187E-19
6.0E-6                    7.5674117964512445E-22   -1.2452561832159167E-21  -3.351212243499592E-20   3.824048487479929E-19    -6.713383121315557E-19   -1.3194228637858199E-17  4.051976704909836E-18    -1.032821721417791E-18   -1.0892798580070718E-18  -3.2339037023255073E-18  2.572782753387704E-18
6.5E-6                    2.055018756799289E-21    1.4499150515740402E-20   -1.1220243181044302E-19  -7.147714680491501E-19   5.6645523737084335E-18   5.765000358241903E-17    1.5787341178023249E-18   2.4139422879476E-17      2.093515312034745E-18    -4.129226321424452E-18   6.158984291562922E-18
7.0E-6                    -2.0107711393062398E-21  9.510570737892331E-21    2.4792498459367602E-20   -2.071143389585199E-18   4.1183019338418124E-18   8.434878650718994E-17    -1.4055118635951397E-17  4.24942880453665E-17     4.722884729718881E-18    2.153520649923708E-17    -6.446100452254077E-18
7.499999999999999E-6      -1.4603380802312517E-20  -5.886806641870622E-20   3.855630186795087E-19    1.4474527107903483E-18   -2.0903922530022358E-17  -2.2713732201596616E-16  -3.604977471163905E-17   -4.27054236295182E-17    -3.89383953807909E-18    2.256534295465472E-17    -4.00505617980207E-17
8.0E-6                    -5.9553533960318686E-21  -5.549714841769194E-20   2.916663040240222E-19    8.687610800495335E-18    -2.3913931108757217E-17  -4.638331898178083E-16   -6.728493685495485E-19   -2.4257035632886173E-16  -1.1599067230739289E-17  -1.120696030992987E-16   -5.20519698312127E-17
8.5E-6                    6.794491680036959E-20    2.002816018404253E-19    -7.183878216815726E-19   1.817320372395378E-18    5.944374103977814E-17    5.561175734305555E-16    1.7774913854362576E-16   -1.7903248751861233E-16  2.868430885925178E-17    -2.115964771308014E-16   1.2659616139991934E-18
9.0E-6                    9.082572816202665E-20    2.859762648507084E-19    -1.2836860035226295E-18  -2.5854240701876382E-17  1.2108559360615224E-16   2.0189988958096364E-15   3.0926480836983974E-16   6.687814374308411E-16    9.215913361355402E-17    1.4748259593189084E-16   1.609636381523476E-17
9.499999999999999E-6      -2.282397562032301E-19   -5.168435243642994E-19   2.67135063931109E-19     -2.5755107273686204E-17  -7.880351551629734E-17   4.0025076484921175E-17   -1.7018336072004645E-16  1.5903529606749476E-15   -1.9705469060308187E-17  5.617497754566731E-16    -3.974415804766057E-16
9.999999999999999E-6      -5.92570584974401E-19    -1.2110965702457329E-18  2.0535251023708822E-18   5.3550493445416657E-17   -3.9791116105065586E-16  -5.6461203323293495E-15  -1.0813022005876428E-15  3.4076323577021933E-17   -3.6145383373321184E-16  -6.570463414984857E-16   -1.6950861296122548E-15
1.05E-5                   3.4841813982460344E-19   7.692229900003674E-19    1.7731679380229166E-18   1.2190183891527416E-16   -8.928220308288702E-17   -5.409611459896338E-15   -2.9143174851241863E-16  -4.683064539905087E-15   -2.700236059140037E-16   -3.844177288656106E-15   -3.502507773979624E-15
1.1E-5                    2.398259176340109E-18    4.312327389316784E-18    4.463951109268224E-18    -1.3510480675354812E-17  1.0852930207638524E-15   9.883869281200726E-15    3.978287890680164E-15    -5.832183382688302E-15   1.11689238297321E-15     -5.082754505885129E-15   -4.828856457061207E-15
1.15E-5                   7.364683202233952E-19    2.0673236971840727E-18   1.050515262499591E-17    -2.8283733528652366E-16  1.473254167136531E-15    2.7194029523919057E-14   8.600577726512581E-15    6.27559657508619E-15     2.8359527002784594E-15   -1.2112162832217155E-15  -8.538083698577334E-15
1.2E-5                    -7.447106675011494E-18   -9.409541389994012E-18   -6.487258618513792E-18   -1.83819256220884E-16    -7.747081978004718E-16   1.142936047119713E-14    8.068225673185821E-15    2.592524155259488E-14    1.750624344010156E-15    -1.5670482755009028E-15  -2.4936290092131855E-14
1.2499999999999999E-5     -9.589918091580886E-18   -1.5462926906705792E-17  -5.4885082082469673E-17  5.646866108279343E-16    -3.0962975735413483E-15  -4.688916954037712E-14   6.640347442376187E-15    2.403327743264057E-14    -2.866162070610153E-15   -2.6136764203770807E-14  -6.164245923900656E-14
1.3E-5                    1.1668842627831536E-17   8.635566479297244E-18    -2.5043964645201072E-17  1.209841785959853E-15    9.490435501554745E-16    -7.094792914357252E-14   2.4792091416958805E-14   -1.8689274001976124E-14  -4.098115222441505E-15   -7.84658233641739E-14    -1.1087529694868817E-13
1.35E-5                   3.509139412012113E-17    5.516014986772298E-17    2.1920288911408846E-16   6.458194637034693E-16    1.138570473698444E-14    5.975498034088778E-14    8.773884736801443E-14    -5.757744942095604E-14   9.31714589610697E-15     -1.2908510407141741E-13  -1.7590461841553787E-13
1.4E-5                    -2.9712538095888884E-18  5.3074013564444E-17      4.563199253676277E-16    -5.765996863631589E-16   1.661604994551643E-14    3.0298256257667693E-13   2.108574312625858E-13    1.1513389111138655E-14   4.1205414442661485E-14   -1.606708099876562E-13   -3.269526429773454E-13
1.45E-5                   -1.0672175060122683E-16  -5.4382122068430046E-17  8.893110327271027E-17    1.8710171750659407E-16   1.085865648105519E-14    3.3928470011056986E-13   4.0982575929962666E-13   2.400254077635015E-13    8.069045017737906E-14    -2.497690853231359E-13   -6.832475277945186E-13
1.4999999999999999E-5     -1.3254717736415334E-16  -1.4918133924846626E-16  -7.492327640043888E-16   5.157795017294758E-15    1.4591114787819223E-14   -3.808960877318413E-14   7.473577437251636E-13    4.997318679390808E-13    1.130717002664253E-13    -5.737268703222114E-13   -1.300026049892328E-12
1.55E-5                   6.037731381482451E-17    1.589427749671631E-17    -1.58556823791138E-16    1.3893231702625654E-14   5.699923637821634E-14    -2.898098030138854E-13   1.394682505835977E-12    5.576337553988341E-13    1.565465811769409E-13    -1.285211320785166E-12   -2.18324383733055E-12
1.6E-5                    2.8162678505927914E-16   4.3471922618077857E-16   3.610450187962655E-15    2.432792502434562E-14    1.3764131878165595E-13   6.061552026240582E-13    2.650592247485621E-12    4.464945376261821E-13    3.158792142395216E-13    -2.394863847214729E-12   -3.6040644513906324E-12
1.6499999999999998E-5     -1.9205542396138743E-17  7.226373939512174E-16    8.018328307167194E-15    3.576603343568297E-14    2.444862052953341E-13    2.679139428594337E-12    4.895604591345618E-12    7.869890955227866E-13    7.94023171042581E-13     -3.920517034563789E-12   -6.362792633485206E-12
1.7E-5                    -1.1362268191634697E-15  7.670879944874794E-16    7.367098643544487E-15    5.465719272379701E-14    4.290637592805138E-13    4.304072872653709E-12    8.561302782032301E-12    2.4422705945064688E-12   1.7882778798949488E-12   -6.3140741230352755E-12  -1.1407232235269782E-11
1.75E-5                   -2.3594114036842005E-15  1.170923495882024E-15    3.5972038082090225E-15   1.069445708971468E-13    8.13236903768526E-13     4.392116197543891E-12    1.411680051292808E-11    5.527317867128046E-12    3.359074452092484E-12    -1.064448822365818E-11   -1.8949610710578947E-11
1.8E-5                    -2.428705719758879E-15   2.445149829358994E-15    1.386074400298258E-14    2.438250914440212E-13    1.4903996870965627E-12   5.28186491041217E-12     2.18263021973005E-11     9.015155992248323E-12    5.562534205335209E-12    -1.7909470652973613E-11  -2.8134271539273083E-11
1.85E-5                   -1.9105477410743093E-15  4.885047429843094E-15    5.533294328556552E-14    5.110875570112552E-13    2.533614263384191E-12    1.1360657173534353E-11   3.127220372114128E-11    1.2069803329173758E-11   8.921228366903764E-12    -2.7776661754575792E-11  -3.782302760861801E-11
1.8999999999999998E-5     -5.458177779634308E-15   1.1255807777050406E-14   1.1825380715225026E-13   9.015033044059979E-13    4.263936625792597E-12    2.331755031482617E-11    4.133283283743919E-11    1.5935260102430124E-11   1.467033468640236E-11    -3.81896056557681E-11    -4.7447860526229455E-11
1.95E-5                   -1.9758641020266727E-14  2.797999391115017E-14    1.754813926263599E-13    1.404664145303312E-12    7.45046157437622E-12     3.545925481990943E-11    5.0911999932043235E-11   2.3530927243117372E-11   2.408809349383745E-11    -4.675910707422495E-11   -5.651307843029376E-11
1.9999999999999998E-5     -4.712022910056549E-14   5.924668643494345E-14    2.479137973986965E-13    2.2263075020374167E-12   1.2929398098389388E-11   4.1382452820046196E-11   5.91400208176817E-11     3.619046447748653E-11    3.7199421617588187E-11   -5.2589699245883673E-11  -6.327824580086905E-11
2.05E-5                   -8.432829348627061E-14   1.0320331225021997E-13   4.5258503272419544E-13   3.975292104144589E-12    2.079143547211731E-11    4.15592073501534E-11     6.411865378661677E-11    5.109499771510964E-11    5.209753091504729E-11    -5.6093034734702716E-11  -6.478398975140288E-11
2.1E-5                    -1.3757090926458374E-13  1.6929387528481316E-13   9.358549350638837E-13    7.436231953686628E-12    3.001053544897691E-11    4.1885297498065515E-11   6.233665707582664E-11    6.284099821812216E-11    6.554029632099309E-11    -5.6750216668605804E-11  -5.876792058130095E-11
2.1499999999999997E-5     -2.459989990706596E-13   3.100790485165708E-13    1.7332961491875193E-12   1.2914510195881926E-11   3.8975972782599085E-11   4.425679885160006E-11    5.1196513400294824E-11   6.751441621688493E-11    7.404950533738917E-11    -5.201544151563136E-11   -4.5088929271985844E-11
2.2E-5                    -4.863291838406419E-13   6.234756915018638E-13    2.757796330993518E-12    1.980141073160168E-11    4.622815819144467E-11    4.2652400844585254E-11   3.2015357952145145E-11   6.456088588395058E-11    7.460454252670392E-11    -3.9493433083206455E-11  -2.4758930019466393E-11
2.2499999999999998E-5     -9.435998434942068E-13   1.2030876130903334E-12   4.036672862725168E-12    2.6965105797434907E-11   5.0462034516050206E-11   3.114328737945205E-11    8.394195708142152E-12    5.507932948242133E-11    6.516112301438223E-11    -1.9689814092812044E-11  1.7396150341922822E-12
2.3E-5                    -1.6809153190283511E-12  2.1008088209896506E-12   6.002063585448708E-12    3.354234042749556E-11    4.9982507935679694E-11   1.2439106153702446E-11   -1.867920204101013E-11   3.9765285285920447E-11   4.54008404984626E-11     4.863913762413189E-12    3.4301277250890285E-11
2.35E-5                   -2.7686969681952936E-12  3.4012460231113233E-12   9.455546974699531E-12    3.903455892516749E-11    4.270133810948691E-11    -5.946284088934236E-12   -5.164106892040153E-11   1.894796316910116E-11    1.6989832247678724E-11   3.327972170914131E-11    7.212417166092003E-11
2.4E-5                    -4.3781275969011135E-12  5.3844699729726946E-12   1.5064614545717464E-11   4.2554970314369156E-11   2.7178465922557474E-11   -2.2559051926982683E-11  -9.160386998922495E-11   -6.834082102991664E-12   -1.742769865368013E-11   6.759617935943202E-11    1.1436995447986033E-10
2.45E-5                   -6.821890939857928E-12   8.556984198492924E-12    2.2686045950135934E-11   4.2480311861783765E-11   3.883039954771581E-12    -4.4055363152018225E-11  -1.3595364480246395E-10  -3.773730785869498E-11   -5.56909213737782E-11    1.09970767454251E-10     1.6193041433450646E-10
2.4999999999999998E-5     -1.0374631235448374E-11  1.3313943995994327E-11   3.0974913914403935E-11   3.734587529161317E-11    -2.4633820710419356E-11  -7.613692643598738E-11   -1.8281317484864866E-10  -7.568458246737166E-11   -9.667780004207424E-11   1.6019919945038357E-10   2.1718502225908683E-10
2.55E-5                   -1.487173249760968E-11   1.930434808405632E-11    3.751873897747805E-11    2.6887911321059466E-11   -5.506861211183527E-11   -1.1744686284248503E-10  -2.3532273678001193E-10  -1.2314494659136615E-10  -1.400824766185496E-10   2.1693321255828427E-10   2.816128594996054E-10
2.6E-5                    -1.9397185146739026E-11  2.4990369873795803E-11   3.947567936608028E-11    1.1645383048740346E-11   -8.520933711039337E-11   -1.6438184673480263E-10  -2.981929691933209E-10   -1.8035930705269368E-10  -1.864171114998578E-10   2.797437371557171E-10    3.5441622054973743E-10
2.65E-5                   -2.247556811313187E-11   2.7959557958657765E-11   3.46051386655643E-11     -8.484264492776294E-12   -1.1483280589625712E-10  -2.1701944840710912E-10  -3.7084761695848E-10     -2.4440237214967306E-10  -2.3715378743843654E-10  3.4826674211495543E-10   4.3323364619924983E-10
2.7E-5                    -2.2797980358817875E-11  2.6036273452037282E-11   2.2420603271444437E-11   -3.47676766868547E-11    -1.4525123177967864E-10  -2.7593594386571944E-10  -4.4669427488121475E-10  -3.1140785582890427E-10  -2.9414612267615096E-10  4.200504641186415E-10    5.146196997033605E-10
2.7499999999999998E-5     -1.9908286580663854E-11  1.8516076048796833E-11   4.803703704592141E-12    -6.849297445216664E-11   -1.7841225757615558E-10  -3.363938086842171E-10   -5.189614600848782E-10   -3.7917371950367723E-10  -3.5828123555860163E-10  4.907798897551096E-10    5.932906621910766E-10
2.8E-5                    -1.415558572645563E-11   6.6058226881554725E-12   -1.4721569455678154E-11  -1.0952370981447531E-10  -2.162602302473718E-10   -3.9155788117329723E-10  -5.847968775193828E-10   -4.468073329304607E-10   -4.280397834558792E-10   5.56290948371552E-10     6.622290521385523E-10
2.8499999999999998E-5     -5.88822518389752E-12    -7.3186043313337E-12     -3.310029099731869E-11   -1.5589655178745907E-10  -2.599290447484846E-10   -4.4072036686158184E-10  -6.429067598051612E-10   -5.119740912683784E-10   -4.986670265377223E-10   6.131249854548927E-10    7.146407642415084E-10
2.9E-5                    5.297844041884547E-12    -2.117526046224845E-11   -4.9964982117747985E-11  -2.0432990083871707E-10  -3.0848263883449846E-10  -4.881930712176048E-10   -6.886438304328578E-10   -5.696669159957044E-10   -5.629172061178623E-10   6.573043391812217E-10    7.454711647703892E-10
2.95E-5                   2.0389060988395736E-11   -3.442633126991035E-11   -6.815449647038104E-11   -2.511311282763088E-10   -3.5826337796501495E-10  -5.323119066214606E-10   -7.124425927881871E-10   -6.146551725520797E-10   -6.136773185567855E-10   6.836335231504251E-10    7.505723189369361E-10
2.9999999999999997E-5     3.989075536934134E-11    -4.834937533754534E-11   -9.186323389265465E-11   -2.9351212198422926E-10  -4.0383928533318116E-10  -5.608938532453846E-10   -7.030221011659745E-10   -6.448103393661312E-10   -6.462261513152598E-10   6.861693366671774E-10    7.249379162150794E-10
3.05E-5                   6.2865890063781E-11      -6.51300742265231E-11    -1.236431080162315E-10   -3.307200329964152E-10   -4.3967777168343447E-10  -5.614443748993637E-10   -6.525310345330992E-10   -6.607224771952416E-10   -6.572327260980098E-10   6.585958131216564E-10    6.623518608330418E-10
3.1E-5                    8.709639204681067E-11    -8.622766502619017E-11   -1.6233489915121716E-10  -3.6337623749003033E-10  -4.609837158339941E-10   -5.323539788675612E-10   -5.595790916061413E-10   -6.611164983481387E-10   -6.417879727207042E-10   5.942575502974878E-10    5.565130416417622E-10
3.15E-5                   1.1036095329608913E-10   -1.1097493027879278E-10  -2.0317634118807292E-10  -3.907326331070169E-10   -4.6369588074755136E-10  -4.792210452661298E-10   -4.27487037519458E-10    -6.386917719195497E-10   -5.93137702761849E-10    4.867178738268656E-10    4.02037031269667E-10
3.2E-5                    1.316883531944967E-10    -1.3642603670009033E-10  -2.3981778869182935E-10  -4.0853702672134176E-10  -4.44578124881539E-10    -4.0186091955909067E-10  -2.587687080113733E-10   -5.808491156030189E-10   -5.059176110955667E-10   3.307393459307679E-10    1.9451242015067375E-10
3.25E-5                   1.5135695998939354E-10   -1.587537569985017E-10   -2.669673119629936E-10   -4.104284757763951E-10   -4.012104782831029E-10   -2.9018811861974555E-10  -5.04372001499414E-11    -4.747420823831322E-10   -3.779371982366267E-10   1.227903470683375E-10    -6.973254503428907E-11
3.2999999999999996E-5     1.696056434860943E-10    -1.752863724875368E-10   -2.82212920166683E-10    -3.917968058646174E-10   -3.3113492701059766E-10  -1.3331272050216927E-10  2.0580377914439605E-10   -3.122876117347685E-10   -2.0767966555970184E-10  -1.3894927759110434E-10  -3.931021541896256E-10
3.35E-5                   1.8538318528821925E-10   -1.855514484576483E-10   -2.861134851422749E-10   -3.517007833022287E-10   -2.309270433763388E-10   7.165376737426983E-11    5.188496769302959E-10    -9.183146527641131E-11   8.32691221001625E-12     -4.5446789343760504E-10  -7.752651262209808E-10
3.4E-5                    1.9646790746904634E-10   -1.9034216465364874E-10  -2.807284579058459E-10   -2.905882079236674E-10   -9.669340397197854E-11   3.2103557939632997E-10   8.925732396371502E-10    1.8333653823912027E-10   2.7382673883983223E-10   -8.216679744928308E-10   -1.2118058427903245E-9
3.45E-5                   2.007330066335154E-10    -1.895489991453233E-10   -2.676852097932402E-10   -2.0673101409471722E-10  7.43566072693467E-11     6.104188227797016E-10    1.3221785584707855E-9    5.074761280246392E-10    5.891534116318862E-10    -1.2362092512728862E-9   -1.6941949567707062E-9
3.5E-5                    1.9691233898615094E-10   -1.8080566617761497E-10  -2.46787553435481E-10    -9.568925310466489E-11   2.8297990651912446E-10   9.35685285775135E-10     1.7934232075462614E-9    8.742294880886682E-10    9.503207811992045E-10    -1.6910599222503924E-9   -2.2107867930522087E-9
3.5499999999999996E-5     1.83760419578209E-10     -1.6046322379630014E-10  -2.1533158322403012E-10  4.690185415439595E-11    5.277674456185593E-10    1.2905750741268252E-9    2.284914292862286E-9     1.2773525458678252E-9    1.3504986167117704E-9    -2.175467150869428E-9    -2.7471815690498575E-9
3.6E-5                    1.5856055018413453E-10   -1.2620453637810035E-10  -1.680490867904906E-10   2.2272400317877617E-10   8.04444978720026E-10     1.6670666964317566E-9    2.772990867915999E-9     1.7104524690924535E-9    1.780131881767586E-9     -2.6740960367464826E-9   -3.285103120667965E-9
3.65E-5                   1.1701293058288705E-10   -7.874684304858084E-11   -9.817824375512297E-11   4.3069444990540994E-10   1.1048163268940327E-9    2.057537837581242E-9     3.236692302808329E-9     2.1655909084614245E-9    2.2254414754042545E-9    -3.1671688451211187E-9   -3.801089477182336E-9
3.7E-5                    5.512647180215423E-11    -2.0675316254868206E-11  -3.952227505297879E-14   6.681044122885208E-10    1.4174587954995853E-9    2.4523855636654984E-9    3.6591620225846544E-9    2.6305162927559817E-9    2.6683243435630987E-9    -3.631221399676439E-9    -4.266878210669601E-9
3.75E-5                   -2.856895432307787E-11   4.66874553177771E-11     1.28031875149761E-10     9.307071778063163E-10    1.730530766138329E-9     2.8335956848817917E-9    4.024072515625053E-9     3.0854070929050646E-9    3.0882986923694716E-9    -4.03970045932505E-9     -4.65152590882498E-9
3.7999999999999995E-5     -1.3259494260361626E-10  1.2524696717567708E-10   2.8261402615273627E-10   1.211683459165358E-9     2.033835441703701E-9     3.1732310286817587E-9    4.309937801494536E-9     3.501842023979215E-9     3.4640144539972913E-9    -4.3637457554159736E-9   -4.923470254633329E-9
3.85E-5                   -2.540615881147874E-10   2.1888338286278825E-10   4.569203282955965E-10    1.5010659272789287E-9    2.3177639608154242E-9    3.4415412839317967E-9    4.487392606478918E-9     3.846773988733854E-9     3.773124734833338E-9     -4.5738981813642585E-9   -5.051293329209818E-9
3.9E-5                    -3.903990231765863E-10   3.303192341820592E-10    6.437931124421435E-10    1.7864620294547294E-9    2.570469637076878E-9     3.6165295851485528E-9    4.522258930098121E-9     4.090773545391011E-9     3.991801090458053E-9     -4.641995040006801E-9    -5.003947054757316E-9
3.95E-5                   -5.396364740833481E-10   4.592609482638159E-10    8.376169007697719E-10    2.0544220860189675E-9    2.776211994238966E-9     3.6834583590675567E-9    4.382392716069904E-9     4.2149033459748554E-9    4.094622164809187E-9     -4.541557280655774E-9    -4.751831808284304E-9
3.9999999999999996E-5     -6.993066141371597E-10   6.030703809413029E-10    1.034187278475921E-9     2.291218198895109E-9     2.9155540607741466E-9    3.625330314252744E-9     4.043373584299801E-9     4.209622525093702E-9     4.054358593462834E-9     -4.246722136389953E-9    -4.268726935934636E-9
4.0499999999999995E-5     -8.653154264120622E-10   7.580674078921593E-10    1.2292145001497922E-9    2.4821594299175716E-9    2.966116926216886E-9     3.417624585996133E-9     3.48957944987229E-9      4.0650395664934484E-9    3.842627624372971E-9     -3.7322339801329035E-9   -3.533494322483758E-9
4.1E-5                    -1.0317444407353622E-9   9.191153615496652E-10    1.4165775876933203E-9    2.609776447376234E-9     2.9036525933479045E-9    3.0350541421778446E-9    2.7112206857798826E-9    3.760407608398756E-9     3.4335665394271014E-9    -2.976531741109696E-9    -2.531272612041995E-9
4.15E-5                   -1.1912727456935954E-9   1.0777826936355394E-9    1.587112082740492E-9     2.652960477744106E-9     2.704662252976797E-9     2.4617998547851996E-9    1.700917410051685E-9     3.263186439728148E-9     2.809622979998009E-9     -1.9665952105950714E-9   -1.2549280147004581E-9
4.2E-5                    -1.3352715558664234E-9   1.2215445933636008E-9    1.7283959622733905E-9    2.5894257333568594E-9    2.350652309889798E-9     1.6925771197865141E-9    4.536789548811253E-10    2.540293132989202E-9     1.9646636295625178E-9    -7.009726583084056E-10   2.930075200680472E-10
4.2499999999999996E-5     -1.4532804386963427E-9   1.3354254639109466E-9    1.8256860565820396E-9    2.4009147819876608E-9    1.8318599550678696E-9    7.257852159233403E-10    -1.0282583554805048E-9   1.5732080483346484E-9    9.015325883385901E-10    8.1075283917992E-10      2.098643380057852E-9
4.2999999999999995E-5     -1.5326285569370258E-9   1.404693086477411E-9     1.86370739731842E-9      2.076819569082799E-9     1.1481506198704375E-9    -4.3864969564186787E-10  -2.728444082578346E-9    3.657051732549506E-10    -3.721603819438781E-10   2.5499032677275967E-9    4.135557829407108E-9
4.35E-5                   -1.5590881684656014E-9   1.416283665253777E-9     1.828618443979707E-9     1.6124928409103122E-9    3.070031106578186E-10    -1.7916716594912143E-9   -4.612598937082087E-9    -1.0592388208117854E-9   -1.8437305193273448E-9   4.488619663793625E-9     6.363563400968005E-9
4.4E-5                    -1.5184812845065617E-9   1.3585793947012385E-9    1.7093539411865977E-9    1.0041958199643492E-9    -6.79434721468965E-10    -3.307205455010953E-9    -6.6314254186156284E-9   -2.6675787054775028E-9   -3.4899397168838903E-9   6.587175828618445E-9     8.72751613822579E-9
4.45E-5                   -1.398243775528399E-9    1.2213399900634005E-9    1.4977817460116946E-9    2.4703384978059754E-10   -1.795975673871981E-9    -4.943818581330887E-9    -8.726472271639777E-9    -4.420290000498541E-9    -5.272269569602154E-9    8.791403027397196E-9     1.1157465577191285E-8
4.4999999999999996E-5     -1.1880874934651567E-9   9.972370740802842E-10    1.1878131017231175E-9    -6.605711997717776E-10   -3.0236342961656146E-9   -6.652991464236699E-9    -1.0832773425940886E-8   -6.275357451768369E-9    -7.1378891369140525E-9   1.1032629117363232E-8    1.3570751900876532E-8
4.5499999999999995E-5     -8.798809403812195E-10   6.840745663541913E-10    7.744254186875258E-10    -1.709548701142376E-9    -4.336947921855861E-9    -8.38410401009583E-9     -1.2876727916158923E-8   -8.18697337322797E-9     -9.024699615054462E-9    1.322969419137976E-8     1.5874783593555378E-8
4.6E-5                    -4.676755636954001E-10   2.854017719895228E-10    2.5365440159384097E-10   -2.8766309589988124E-9   -5.700995050960211E-9    -1.0082571921423461E-8   -1.477407805807721E-8    -1.01025741976554E-8     -1.0865340550913421E-8   1.5291382938800818E-8    1.796902356439675E-8
4.65E-5                   5.1349596430352063E-11   -1.9141656007158757E-10  -3.761389872708486E-10   -4.1265433882568696E-9   -7.070002717214469E-9    -1.1685558680847127E-8   -1.6432547071629742E-8   -1.1958296501754416E-8   -1.2587693948602856E-8   1.7118996646278517E-8    1.9746519594550822E-8
4.7E-5                    6.75258951986238E-10     -7.380505757683534E-10   -1.1120127580009498E-9   -5.415915118615883E-9    -8.388688881004742E-9    -1.3119809715697805E-8   -1.7757818815956007E-8   -1.367615325555696E-8    -1.411349542682919E-8    1.860984101385948E-8     2.109661492161276E-8
4.7499999999999996E-5     1.3961233101016636E-9    -1.3464307874161951E-9   -1.943419155811794E-9    -6.6950807267299625E-9   -9.596090930239359E-9    -1.4302934545297643E-8   -1.8658549055853068E-8   -1.516713992296891E-8    -1.5357954294785418E-8   1.966154514349237E-8     2.190975306099189E-8
4.8E-5                    2.1998994783657335E-9    -2.0073200445210737E-9   -2.848950152268341E-9    -7.908807706634534E-9    -1.0630326334173096E-8   -1.5148809481802006E-8   -1.9049309627016827E-8   -1.6340064538697612E-8   -1.6232363517508407E-8   2.0176250226027054E-8    2.2083569255180146E-8
4.85E-5                   3.0669069703813415E-9    -2.7073348437753566E-9   -3.794736166868096E-9    -8.998845109579506E-9    -1.14322487380362E-8     -1.557663515475614E-8    -1.8853957800252612E-8   -1.711043315681553E-8    -1.6650107512144103E-8   2.0064349826713628E-8    2.1528429639738432E-8