% Model:              analysis.mph
% Version:            COMSOL 6.0.0.405
% Date:               Jul 20 2023, 12:11
% Dimension:          1
% Nodes:              10001
% Expressions:        11
% Description:        Point graph
% Time (s)                Displacement field, Y component Displacement field, Y component Displacement field, Y component Displacement field, Y component Displacement field, Y component Displacement field, Y component Displacement field, Y component Displacement field, Y component Displacement field, Y component Displacement field, Y component Displacement field, Y component
0                         0                        0                        0                        0                        0                        0                        0                        0                        0                        0                        0
1.0E-6                    -4.50457953591932E-50    -5.962468610044778E-49   -1.1307159788780722E-46  1.9792950260027458E-47   -2.930316428060291E-45   -3.709281633925644E-45   -1.35299861738877E-44    -3.7236636760313135E-43  -4.263618555406114E-43   -3.2883431207626733E-43  -1.132345523228415E-43
2.0E-6                    2.2673959724089855E-49   3.405205337264812E-48    7.05372885492559E-46     -2.1562106340507476E-47  2.1312765637033248E-44   3.539190846885354E-44    1.3604684889082046E-43   3.201040969814475E-42    4.505552407914314E-42    3.5384517063956455E-42   1.2041398528518278E-42
3.0E-6                    -6.597134756784281E-49   -3.772795965029564E-47   -2.7621061811997425E-45  -3.4652963860537015E-45  -1.130263647636729E-43   -2.538150374519437E-43   -1.0822225333678657E-42  -8.45007905014567E-42    -1.62512863727569E-41    -1.3600651663177844E-41  -4.922122631277654E-42
4.0E-6                    1.0447712948020866E-47   2.9797327165085666E-46   1.2632187258427247E-44   2.825837355443858E-44    4.329332624320026E-43    8.353652216710648E-43    4.652068626007299E-42    -1.72563175184335E-41    -4.07260678738418E-42    2.586246390366656E-42    2.5595291064832164E-42
4.9999999999999996E-6     -1.206683190157955E-46   -1.042458962537812E-45   -2.1983012639565754E-44  -1.0925324448198399E-43  -5.992361576589554E-43   -3.2700329534139793E-43  -7.102186934338292E-42   1.0841087929686583E-40   1.4623277960671484E-40   1.100069221480585E-40    3.8227771667027014E-41
6.0E-6                    4.7237676564145595E-46   7.964525801507567E-46    -1.2297182924168502E-43  1.6374805835556521E-43   -2.7274685595650924E-42  -5.472194170717626E-42   -1.6654516154696725E-41  1.356702303842429E-41    -1.7106401037903321E-40  -1.968673542585352E-40   -8.444549923692714E-41
7.0E-6                    -1.3356092464215374E-46  4.263085542279316E-45    4.364018563719563E-43    4.131477511833958E-43    1.179241275318891E-41    1.3177902377686081E-41   8.525643507309681E-41    -6.015440527120326E-40   -5.872366925018377E-40   -3.485615342693215E-40   -1.0796632251336322E-40
8.0E-6                    -3.935373069759029E-45   -1.4435989079434218E-44  5.242903366706602E-43    -2.248253955826652E-42   -8.938816539829809E-43   6.858640423329824E-42    -6.836509529775603E-41   -4.987144720310553E-41   9.872461803892018E-40    1.1556405707118097E-39   4.763541557087418E-40
9.0E-6                    8.440965082527744E-45    2.2753352122442684E-44   -3.001400879566291E-42   1.8411525659601405E-42   -7.046613361637494E-41   -6.822646509905975E-41   -3.29424715441697E-40    2.3610655590647965E-39   1.9661062064901132E-39   7.565316127109805E-40    1.4453856140533184E-40
9.999999999999999E-6      1.0424857150510369E-44   3.377571381473951E-44    -1.99398155051942E-42    9.44738276749119E-42     6.956984002214305E-41    3.4915118507003293E-41   6.856436588033694E-40    1.4044087169883985E-39   -3.0247267140567534E-39  -4.135226067892847E-39   -1.6566258950552082E-39
1.1E-5                    -5.744237206456707E-44   -2.5706767683531962E-43  1.4629462596408613E-41   -2.0458423475707578E-41  2.975983003805973E-40    2.1478819670455076E-40   7.902262740438722E-40    -6.475873125558083E-39   -6.916059627633132E-39   -1.8065030793898298E-39  1.1704722300642368E-40
1.2E-5                    1.635139600024292E-44    9.994037909410962E-44    8.397267090576614E-42    -2.026500423754894E-41   -4.706296543795471E-40   -1.8196809158407466E-40  -2.996753153707534E-39   -1.0323707686462459E-38  4.867146066583158E-39    1.0395091404014888E-38   4.301166882110251E-39
1.3E-5                    2.3324348998051216E-43   1.2175420139797618E-42   -6.095392325628726E-41   9.57427313287187E-41     -1.1210426902410293E-39  -5.637091439825414E-40   -1.2818334003544108E-39  7.56217825088995E-39     2.430307190999984E-38    4.998752782069726E-39    -1.8508778199129425E-39
1.4E-5                    -2.7291021165663712E-43  -7.860256522760724E-43   -3.5568709650977836E-41  1.9462188967434278E-42   2.273171985144148E-39    3.899232066548589E-40    9.506796478183561E-39    4.214761418649464E-38    7.922282358739603E-39    -1.5747205990372225E-38  -9.569616888295119E-39
1.4999999999999999E-5     -7.207611102731336E-43   -3.394507423185089E-42   2.368819941615132E-40    -3.1216839334495106E-40  4.304858566566941E-39    1.805432048880742E-39    5.8221177859112925E-40   3.2530964406177266E-38   -7.25734598370986E-38    -4.37865984578928E-39    9.81339076996996E-39
1.6E-5                    1.48180801580349E-42     2.1489275572215646E-42   1.5903467632392167E-40   2.041617232382372E-40    -9.281430058291564E-39   -1.7160408976327063E-40  -2.515503728917899E-38   -1.0381079776872335E-37  -1.018296346025531E-37   2.337213098716159E-39    2.376859705881415E-38
1.7E-5                    2.0166693568576834E-42   1.8680051001641888E-42   -8.777530963427767E-40   8.056578773619193E-40    -1.7743419977600197E-38  -8.514154259416831E-39   5.5746591483201424E-39   -2.380930807409415E-37   1.448562344436396E-37    -5.98556369808243E-38    -3.4657237173922673E-38
1.8E-5                    -5.785206896863395E-42   -7.127226758535846E-42   -8.168938705213603E-40   -1.2270476385884793E-39  3.201527275070317E-38    -3.622545151550404E-39   6.037973245836915E-38    9.075359968188702E-38    4.696601598090749E-37    1.6480148624920852E-38   -7.540023561886584E-38
1.8999999999999998E-5     -6.264163987864471E-42   3.587944486413453E-41    2.908582311129198E-39    -1.831901805950023E-39   7.387425824745708E-38    4.299550440470788E-38    -2.7363170065948726E-38  8.445169221334459E-37    -1.0946586916973297E-38  3.8087858876384555E-37   7.60759763449795E-38
1.9999999999999998E-5     1.7950461641488336E-41   6.497231391063974E-41    4.207611816588474E-39    5.2877308616003064E-39   -8.710631806313044E-38   3.362906208563059E-38    -1.3884091530186226E-37  4.978755289970035E-37    -1.3709125091389902E-36  2.5727754889397825E-37   2.357768218559478E-37
2.1E-5                    2.346154625586719E-41    -1.921821178401707E-40   -7.481191087142537E-39   4.509041905154496E-39    -2.817182692896897E-37   -1.8267629704335447E-37  8.636104163254515E-38    -1.9389022061145506E-36  -1.2334037212820525E-36  -1.131632869803932E-36   -5.533520725975113E-38
2.2E-5                    -4.1439538161487583E-41  -4.649572619199904E-40   -1.8283449951673266E-38  -1.8981707437330102E-38  1.599998259378917E-37    -2.1132357909292476E-37  3.1925163330941816E-37   -2.9535834150240968E-36  2.3388605668542906E-36   -1.8551106470848947E-36  -5.768832656953201E-37
2.3E-5                    -9.162103592809109E-41   3.8277535863827585E-40   1.0280302938374126E-38   -1.4346240910312492E-38  9.32480164532688E-37     6.117318218792549E-37    -2.260033448143734E-37   2.352583481558245E-36    5.152479014596751E-36    1.4178958194943728E-36   -2.7530037417343996E-37
2.4E-5                    3.8791689459341E-41      2.0759200200855795E-39   6.159406400988425E-38    5.792796747986492E-38    -5.608978261558551E-38   1.0037110600841517E-36   -7.720110644453877E-37   8.901424598780386E-36    -2.9078209545350927E-37  6.120969939596819E-36    9.672216462094551E-37
2.4999999999999998E-5     3.1323486739101936E-40   8.532662646225563E-40    1.9587503547553144E-38   5.134627777020986E-38    -2.6753028617107736E-36  -1.5748585684029707E-36  4.557145451479132E-37    2.310363926581486E-36    -1.1162358782244024E-35  2.5866270441578963E-36   1.2547077244642974E-36
2.6E-5                    2.532496756724638E-40    -5.6911529005666464E-39  -1.5183080309481446E-37  -1.5193923519069667E-37  -1.0367765510479389E-36  -3.753165835210978E-36   1.8887322322992007E-36   -1.6662429147616374E-35  -1.0574035159215185E-35  -1.1063717482901116E-35  -7.653757096895603E-37
2.7E-5                    -8.07410534139982E-40    -9.012029388967907E-39   -1.7882775569190954E-37  -1.710447535765706E-37   6.80186102417889E-36     2.9240981403067597E-36   -4.522398227797401E-37   -1.9020682355542166E-35  1.0220543255040986E-35   -1.6548939261628884E-35  -2.7656878673008968E-36
2.8E-5                    -1.9067980092362082E-39  6.722455384373622E-39    2.3628853954649373E-37   3.540357722214437E-37    5.987749383390488E-36    1.1447634369644893E-35   -3.9114142232719995E-36  1.462526024852419E-35    2.9477655569742834E-35   5.007405256094561E-36    -1.0695106564139634E-36
2.9E-5                    1.0150149785588292E-39   3.3656825554695235E-38   6.438050669107647E-37    5.165044676604926E-37    -1.5056540895290573E-35  -2.7877654182164453E-36  -3.4116349566320874E-37  4.6936136581862626E-35   1.4207325189007517E-35   3.649213461765926E-35    3.2982718753572535E-36
2.9999999999999997E-5     7.973881169939627E-39    1.7365763548744808E-38   -3.05341247498077E-38    -7.606679875383372E-37   -2.4042216936832212E-35  -2.936916279324442E-35   5.696272743439487E-36    1.6931818780559673E-35   -3.1554473634610416E-35  2.994879651450585E-35    4.453698615743978E-36
3.1E-5                    3.444731828826598E-39    -7.359590471793274E-38   -1.5420678793045414E-36  -1.5046954606747066E-36  2.4291765180768065E-35   -5.071931544950509E-36   -9.647321566108738E-37   -6.131815210489853E-35   -5.711775966886665E-35   -3.040592532452549E-35   -2.7633093249670817E-37
3.2E-5                    -2.395622204364716E-38   -1.1464521555104028E-37  -1.1777886763681353E-36  1.4207706654906416E-36   7.697488095024809E-35    6.520191197638719E-35    -7.94004975581936E-36    -8.069714884237676E-35   -2.1282844433553622E-35  -8.385246843611816E-35   -5.6001390939343426E-36
3.2999999999999996E-5     -2.9866543432430304E-38  8.386416032930563E-38    2.5417670700728113E-36   4.324581104134718E-36    -3.677992809467242E-36   3.6102404197803926E-35   1.7731537687116077E-35   2.2133116403152425E-35   5.284720085934922E-35    -4.7165475856769325E-35  -5.2333605279242434E-36
3.4E-5                    5.073401000138262E-38    3.374703533334542E-37    4.5735780823693954E-36   -1.4654176366737709E-36  -1.8520471694808524E-34  -1.2831682831915058E-34  3.6476942894289364E-35   1.3642450216772836E-34   9.724123246904666E-35    7.494417944759155E-35    -5.0917205791292495E-37
3.5E-5                    1.2536800222227404E-37   3.73137824923172E-38     -2.029798161409806E-36   -1.1238065164854303E-35  -1.4426184576538702E-34  -1.2655317984806363E-34  -5.594520059320677E-35   7.928843473280017E-35    6.478603798250176E-35    1.602889692457847E-34    3.218323988636493E-36
3.6E-5                    -5.156990714799757E-38   -7.3936799224444686E-37  -1.131033216384158E-35   -3.639479329788241E-36   2.8068487086529217E-34   2.2238257960761577E-34   -1.7989560816145293E-34  -1.3071734291555852E-34  -3.821670641190883E-35   8.565187504097037E-35    6.029119045708319E-36
3.7E-5                    -3.778847881973449E-37   -4.608240634498031E-37   -4.275830466953807E-36   2.2591973000195636E-35   5.537706755947273E-34    3.6114323784194632E-34   8.119855667398012E-36    -2.082929440266025E-34   -1.601835667749964E-34   -1.197702383952769E-34   1.0975761609823236E-35
3.7999999999999995E-5     -1.3560692256241874E-37  1.532572622578547E-36    2.0179328433663006E-35   2.470816877548615E-35    -5.422746519012223E-35   -2.992300094190744E-34   5.261290905097181E-34    4.1517114749307586E-35   -2.082763575390748E-34   -2.647866414198761E-34   1.1944135035586075E-35
3.9E-5                    8.626581546811212E-37    1.8744078820290903E-36   2.431144551419585E-35    -2.5984078550733067E-35  -1.1204184329436013E-33  -8.990018967478915E-34   5.135276862968801E-34    3.4473443034685846E-34   -7.822207419488311E-35   -1.76234377139785E-34    -4.687719243224914E-36
3.9999999999999996E-5     9.488922421625211E-37    -2.968251350338919E-36   -2.111950808611987E-35   -6.929876226117137E-35   -9.790883834147972E-34   1.1114390785854039E-34   -7.70381488679188E-34    1.9547829067815263E-34   2.264361084111789E-34    1.0394557468347623E-34   -3.7401831782539646E-35
4.1E-5                    -1.3871204202239193E-36  -6.920556733857023E-36   -6.441697369050207E-35   -1.417348452995132E-35   1.0428212782694674E-33   1.8617209751920385E-33   -1.998247797632829E-33   -3.98931626733483E-34    4.838903454712364E-34    3.32717571829688E-34     -5.464897729668457E-35
4.2E-5                    -3.205142877620602E-36   2.603589609529726E-36    -1.268659342086325E-35   1.0558779741652896E-34   2.7285031932950324E-33   9.961790640755135E-34    -4.1153845898769936E-34  -6.8150490422793145E-34  3.7582562242416467E-34   3.0623561892747806E-34   -1.8430901543592172E-35
4.2999999999999995E-5     8.348326146937315E-37    2.0072396241431146E-35   1.0843449016694212E-34   1.255554440231675E-34    1.012763561027181E-33    -2.8300555501699427E-33  3.7421067178498555E-33   -2.5235883753295654E-35  -1.645948848036654E-34   6.738862906244006E-35    6.695481756831304E-35
4.4E-5                    7.711030227144853E-36    1.1897509735953671E-35   1.1424738273749588E-34   -3.3192234001800484E-35  -3.3933717016558746E-33  -3.902106074280882E-33   4.849877238607057E-33    1.0340481475458956E-33   -7.5613119493591045E-34  -1.6909121273903115E-34  1.3479155135903631E-34
4.4999999999999996E-5     3.896624072015312E-36    -3.644503399043744E-35   -9.122167084815172E-35   -2.206443375159531E-34   -5.122849138354736E-33   2.036812465387116E-33    -1.8402937327839643E-33  1.1488096317466409E-33   -8.456709134753946E-34   -2.8335241836891455E-34  1.0275650858950321E-34
4.6E-5                    -1.3360353655530865E-35  -6.349948278018769E-35   -2.700216465063586E-34   -2.1429690774069757E-34  -1.3344570055882628E-34  8.357832237356845E-33    -1.084194858323063E-32   -2.016858802529813E-34   -2.4242182036164414E-34  -3.5282255456308735E-34  -4.2407165688414784E-35
4.7E-5                    -1.824739775899139E-35   1.4942210596597521E-35   -8.036918115018866E-35   3.9582947189463753E-35   7.643510633004364E-33    3.5288824623548803E-33   -8.892968040810875E-33   -1.7769341235554054E-33  6.520064436997769E-34    -4.354278849564031E-34   -2.066304603908271E-34
4.8E-5                    1.2666829340029604E-35   1.4844762551280311E-34   3.611399426716708E-34    3.8400190823426197E-34   8.48002919416547E-33     -1.057436064756975E-32   7.933897723451928E-33    -1.752879826146953E-33   1.1633820273262983E-33   -3.436818837075797E-34   -2.5347553601504157E-34
4.9E-5                    4.58480586528557E-35     1.251402480206941E-34    4.254372251432254E-34    5.266762949609901E-34    -1.9635587121720978E-33  -1.501305373820147E-32   2.313620036264273E-32    1.7542413122739312E-34   8.861547760688432E-34    1.8929803409434815E-34   -1.250487749102772E-34
4.9999999999999996E-5     1.291702920467901E-35    -1.5494192332843634E-34  -2.007513053457842E-34   1.4140921447797074E-34   -1.4622990390010568E-32  2.5868736477766983E-33   1.482229904638487E-32    2.236579951804828E-33    -2.2390454488693322E-35  1.0533698546711408E-33   1.0050758155232257E-34
5.1E-5                    -7.457048482374481E-35   -3.961405049500872E-34   -8.046265700599212E-34   -7.714728668412909E-34   -1.3876550746012082E-32  2.5310515140608027E-32   -1.587671333700885E-32   2.3190089851679753E-33   -9.442324242648168E-34   1.6018333497575293E-33   2.7606800537416678E-34
5.2E-5                    -8.59600075622243E-35    -1.4145530839621818E-34  -3.4640366263066878E-34  -1.415692562706954E-33   4.868948743392823E-33    2.1078802842146637E-32   -3.9233025266674307E-32  1.6973027010679578E-34   -1.1824527390517524E-33  1.1392044799439591E-33   3.063437210139765E-34
5.3E-5                    5.747210595942165E-35    5.358731531494059E-34    9.399768841531016E-34    -6.039315325835948E-34   2.5652595790006676E-32   -1.5846127592245023E-32  -2.6737297193007916E-32  -2.2288458797664138E-33  -4.687070716915346E-34   -3.5901390105492476E-34  2.0529582157533294E-34
5.4E-5                    1.9622031184910726E-34   8.029756295959279E-34    1.3113986318203085E-33   1.64043955076222E-33     2.4413004913683335E-32   -4.7306565318183404E-32  1.5957026735027698E-32   -2.5027840651757244E-33  6.6551064839308385E-34   -2.066281199236031E-33   5.439002709266495E-35
5.4999999999999995E-5     7.754237543731799E-35    -2.4076407265093265E-35  -3.3450241538125133E-34  3.144696304914614E-33    -5.483220998251392E-33   -2.8233741548571277E-32  5.183202609203212E-32    -2.427075665597513E-34   1.082010927757416E-33    -2.905932340181611E-33   -8.72553764665861E-35
5.6E-5                    -2.4515702373245517E-34  -1.2908831365586421E-33  -2.361154040918705E-33   1.4508414768623982E-33   -4.084335790234743E-32   3.5950577555163303E-32   4.835991487577332E-32    2.3624563432774392E-33   -6.336998075342633E-35   -2.3749038232638222E-33  -2.547857299471156E-34
5.6999999999999996E-5     -3.4074356183831405E-34  -1.3067449744221407E-33  -1.7263139708913988E-33  -2.8387779561640468E-33  -4.59817529583775E-32    7.964705347764481E-32    7.117968496620578E-33    2.4427488580670675E-33   -2.3463429735603374E-33  -8.626406548928049E-34   -5.649513092413513E-34
5.8E-5                    5.927694753914659E-35    5.8229861697182985E-34   1.9329082351931153E-33   -5.570692175767786E-33   -6.515414412749221E-33   4.0969471647974127E-32   -4.116767893134234E-32   -6.5175015750822375E-34  -4.019838043328542E-33   7.3014468734946865E-34   -1.066571611971886E-33
5.9E-5                    5.502067840120148E-34    2.5021196321155026E-33   4.6475114314165116E-33   -3.114678856046532E-33   5.257343928475792E-32    -5.952176425199532E-32   -6.540601151535908E-32   -4.333477489683257E-33   -3.1426693264392194E-33  1.6959437218355136E-33   -1.5358802135790429E-33
5.9999999999999995E-5     4.220934753740549E-34    1.679271478158161E-33    2.2021177072220346E-33   3.2159642489795535E-33   8.319294315211388E-32    -1.203214813470026E-31   -5.564611684243221E-32   -4.939548992775539E-33   9.39881364450967E-34     2.0129186814504265E-33   -1.4710291939948925E-33
6.1E-5                    -3.618980202653701E-34   -1.8595320102866976E-33  -4.138114586681493E-33   7.837962018631678E-33    5.143595397565482E-32    -6.20208999502254E-32    -2.0652010021270876E-32  -1.0801421422795682E-33  6.835289682023144E-33    2.2712158570148465E-33   -4.401385074585346E-34
6.2E-5                    -8.924671122229898E-34   -4.1238495500731507E-33  -7.77333648647272E-33    6.276928272315476E-33    -3.404139487893359E-32   7.235788041966996E-32    2.7720012673110145E-32   5.1201153160403226E-33   1.1523265757229324E-32   3.0623920277339543E-33   1.4696456537626126E-33
6.3E-5                    -3.6152232852306336E-34  -1.3501858538371159E-33  -3.8018579639976305E-33  -6.3530222197475215E-34  -1.2171207134625798E-31  1.4782067421334257E-31   8.08245016676294E-32     9.798261191934496E-33    1.1860596411161821E-32   4.3463150387471805E-33   3.576555518181099E-33
6.4E-5                    7.710614284061736E-34    4.3808830743151374E-33   5.0566245685627085E-33   -7.841027281931084E-33   -1.4440066735383153E-31  8.399383195105596E-32    1.2199627590835928E-31   9.971734435451037E-33    6.684084380076917E-33    5.452465175974989E-33    5.03121828535554E-33
6.5E-5                    1.1404589870188548E-33   5.829839688744303E-33    1.0910388092541746E-32   -1.0398538028771241E-32  -6.217974962444848E-32   -5.071900823710652E-32   1.1597261724639716E-31   4.8139705237350966E-33   -1.741155788061958E-33   5.7347327491032274E-33   5.336493682289222E-33
6.599999999999999E-5      1.5489447643035036E-34   -7.88958000453391E-34    8.518977375183019E-33    -6.569839092596813E-33   9.918715866752537E-32    -1.1881844084316008E-31  2.6117629779353466E-32   -4.19765868309684E-33    -8.61718987477763E-33    5.0322037162257384E-33   4.495722504208866E-33
6.7E-5                    -1.1206794769689245E-33  -8.810414039490482E-33   -6.24232383317138E-34    1.95116946249927E-33     2.438896899691665E-31    -7.378994151995156E-32   -1.3989438837350666E-31  -1.314656370666752E-32   -1.0062291258394164E-32  3.243921866198894E-33    2.7851936774728312E-33
6.8E-5                    -1.1847652697324945E-33  -6.848586704823039E-33   -1.1003796512658748E-32  1.116137058066056E-32    2.564777701550914E-31    -1.162778426479843E-33   -2.971811878536391E-31   -1.6229470982851E-32     -6.521627471670032E-33   -3.940975203011121E-34   4.96360579136456E-34
6.9E-5                    3.36577242743658E-35     6.179818329192677E-33    -1.6962159520206772E-32  1.6013860999205536E-32   8.622238115285715E-32    5.595840204536133E-33    -3.1461747937714264E-31  -8.742843899271367E-33   -2.7510748217501027E-33  -7.014643898051819E-33   -2.1397718747678493E-33
7.0E-5                    1.143011059382502E-33    1.5477128452647376E-32   -1.3625130501422173E-32  1.2285860768393261E-32   -1.9699751248991521E-31  -3.1694443823039227E-32  -1.1272598561935387E-31  8.200676566279995E-33    -3.973600741300453E-33   -1.659267365825217E-32   -4.931489797933819E-33
7.099999999999999E-5      1.1231130185753075E-33   6.0819651195558736E-33   1.4864631557843996E-33   -6.044224433211897E-34   -4.276100101969806E-31   -1.0304247214807235E-32  2.41010231877649E-31     2.536384248477776E-32    -1.1612593959036791E-32  -2.6686330253049896E-32  -7.725486146401559E-33
7.2E-5                    3.660467533171559E-34    -1.55314871169927E-32    2.3102283175750662E-32   -1.73353664595543E-32    -4.407925230857622E-31   1.1045498805774647E-31   5.347151752248547E-31    2.915545124242126E-32    -2.227757800937936E-32   -3.302363002850436E-32   -1.0380535715424405E-32
7.3E-5                    -4.947094557954814E-34   -2.3442329788283518E-32  3.588196486995187E-32    -2.780198065633909E-32   -1.7810655823796307E-31  2.3427303969708482E-31   5.443975588502275E-31    1.0326371761289137E-32   -3.030554141562769E-32   -3.178659302230757E-32   -1.266413421184162E-32
7.4E-5                    -1.6619146855951367E-33  -2.587706718273998E-33   2.4138038285058305E-32   -2.3062712130999342E-32  2.6048880298949043E-31   2.0765483020480733E-31   2.12284400890391E-31     -2.7992384234317005E-32  -3.11773660622271E-32    -2.1975229339219763E-32  -1.418815624507292E-32
7.5E-5                    -2.7403426641721053E-33  2.729880629959114E-32    -1.1404768131941763E-32  -3.001166558015954E-33   6.477556820077223E-31    -2.637416924609929E-32   -2.795833398300877E-31   -6.8697364851291E-32     -2.3362586850248516E-32  -6.356268444368657E-33   -1.450515694529487E-32
7.599999999999999E-5      -1.231251884325921E-33   2.950123984042624E-32    -4.8225804140073144E-32  2.1520648931841473E-32   7.39372833411297E-31     -3.454378314643662E-31   -6.279977482236972E-31   -8.803904390606366E-32   -8.28922975659084E-33    9.566156622372335E-33    -1.325308408862736E-32
7.7E-5                    4.461220441097538E-33    -4.3801514192758185E-33  -5.803424415931728E-32   3.6354081008056976E-32   4.218365723325424E-31    -5.171476272849466E-31   -6.396336348172121E-31   -6.949381091402059E-32   1.061362850426312E-32    2.0350526846764154E-32   -1.0153759986213917E-32
7.8E-5                    9.609552696225404E-33    -3.75185017576317E-32    -3.054185305391983E-32   3.5475847568453964E-32   -1.879982796358819E-31   -3.813083396869365E-31   -3.716065428559048E-31   -1.6394586136497838E-32  2.920917336626929E-32    2.408655348457759E-32    -4.9374312239884885E-33
7.9E-5                    4.87881577122838E-33     -2.8108653332221556E-32  1.8586860601866067E-32   2.3471026777218607E-32   -7.814176166130834E-31   1.8470715554051183E-33   -4.740397758581038E-32   4.7028638995016405E-32   4.423359217611815E-32    2.4344722100281318E-32   2.557370465615568E-33
7.999999999999999E-5      -1.1427958149541172E-32  1.6712316940481778E-32   6.182601530089024E-32    5.6104820945648124E-33   -1.0377369086941213E-30  3.866854827265023E-31    1.6181292506850142E-31   9.03002692654973E-32     5.471691417174531E-32    2.8535057269169864E-32   1.2131528718893966E-32
8.099999999999999E-5      -2.4205132533733026E-32  4.296524594385253E-32    7.874620465555851E-32    -2.080255612962493E-32   -8.240967116200933E-31   5.484410471309795E-31    2.5849675525247274E-31   9.72671909959945E-32     6.208322478861214E-32    4.289080239118599E-32    2.3118031462049785E-32
8.2E-5                    -1.2962291101496891E-32  1.4055882343253958E-32   6.186943221525899E-32    -5.862596338165478E-32   -2.612453199847968E-31   4.55512960710663E-31     3.3044048600293657E-31   7.49316919610324E-32     6.8228281156726E-32      6.71681816089574E-32     3.4489243667338163E-32
8.3E-5                    2.1732419823623608E-32   -3.8478653648359575E-32  1.2137824342272583E-32   -9.338384987486046E-32   3.840068868334304E-31    2.2708663652463644E-31   3.8982371419389203E-31   4.296709680765105E-32    7.278516427373913E-32    9.289054336954885E-32    4.496612883627664E-32
8.4E-5                    4.8159043432303495E-32   -4.648810065512796E-32   -6.009415686785485E-32   -9.221758212742602E-32   8.682195653433227E-31    -4.681491890905954E-32   3.456200919748338E-31    1.5844062343985601E-32   7.23045577753847E-32     1.0682006490677185E-31   5.317543695597957E-32
8.499999999999999E-5      3.0930121394275707E-32   1.0650712552101726E-32   -1.2577573755429661E-31  -3.1535901266729733E-32  1.0629381606778165E-30   -3.783003422521416E-31   1.269970926235517E-31    -4.091483114250912E-33   6.28965399334336E-32     9.803437097519065E-32    5.810882772920324E-32
8.599999999999999E-5      -2.6928656170033734E-32  7.13701288619053E-32     -1.3914294584268916E-31  7.154129063620266E-32    9.397290390645587E-31    -7.653203708875094E-31   -2.1075463224526447E-31  -1.8865607498588497E-32  4.427822153563465E-32    6.45877811585463E-32     5.949457162261792E-32
8.7E-5                    -7.619306685909507E-32   5.776445794411962E-32    -6.79277759078587E-32    1.624179732661247E-31    5.279644703859235E-31    -1.0762775641862562E-30  -5.2095188683188565E-31  -2.587561536284952E-32   2.0776381986548567E-32   1.541167651013464E-32    5.712700684168885E-32
8.8E-5                    -6.482312702474271E-32   -2.946458002982939E-32   6.57647374871928E-32     1.904270106613653E-31    -8.959188414996998E-32   -1.1231212250027586E-30  -6.866859224739724E-31   -1.9779438135911788E-32  -2.8515211832996646E-33  -3.4560964897514835E-32  4.9287200886293555E-32
8.9E-5                    8.93615945486642E-33     -1.0243513480276103E-31  1.8016539339385156E-31   1.4575052138135863E-31   -7.685452778004687E-31   -8.462237997721423E-31   -6.9936929022736455E-31  -1.5651567231361822E-33  -2.725491945026246E-32   -7.356034833898419E-32   3.226572142287996E-32
8.999999999999999E-5      8.957889700322999E-32    -8.140153959923729E-32   1.8879508388049163E-31   5.20007579352805E-32     -1.339384267093267E-30   -3.8961851587395974E-31  -6.370941092810509E-31   1.7767122145233653E-32   -5.956876769351559E-32   -1.001246037301604E-31   2.7538904471277387E-33
9.099999999999999E-5      1.108118337079472E-31    1.5580160484940435E-32   7.703178218054146E-32    -7.036613778329249E-32   -1.683940227069462E-30   4.3476672795306675E-33   -5.802249965482598E-31   2.3780695156397296E-32   -1.0738348065672959E-31  -1.226835395863217E-31   -3.8165003236175633E-32
9.2E-5                    4.955815023553468E-32    9.523778042337444E-32    -7.512275778857523E-32   -2.15973083784669E-31    -1.7872016337906822E-30  1.5486522682116005E-31   -5.432676505939888E-31   8.359189450337476E-33    -1.7060492451409506E-31  -1.5189806496069543E-31  -8.323754741594281E-32
9.3E-5                    -5.77080061276463E-32    9.457079259842682E-32    -1.5618242899852643E-31  -3.6223161743194525E-31  -1.723867585629475E-30   3.3253786022482235E-32   -4.821810568875313E-31   -2.623774028614048E-32   -2.386154622025731E-31   -1.9198591477770598E-31  -1.2206305874656627E-31
9.4E-5                    -1.4030902143378358E-31  3.9288736974262245E-32   -1.1737997441974853E-31  -4.4197697409127015E-31  -1.6036942554031954E-30  -2.3017174240147496E-31  -3.530190278162146E-31   -7.064253481846996E-32   -2.9478448102331814E-31  -2.374353317337955E-31   -1.473686666058823E-31
9.499999999999999E-5      -1.3710136401107776E-31  -9.969201113097013E-33   -9.08379546020596E-33    -3.780333450709131E-31   -1.5182514783278445E-30  -4.0601076373114425E-31  -1.2486721504418927E-31  -1.1431564888120267E-31  -3.235576532577965E-31   -2.7618160253465472E-31  -1.59834258362793E-31
9.6E-5                    -3.6982300415201065E-32  -4.1167721326187297E-32  6.95825856722655E-32     -1.6015242116234044E-31  -1.5019377269266123E-30  -2.858520347695744E-31   2.800529343513596E-31    -1.490654823138573E-31   -3.1469276751309793E-31  -2.9544112806513535E-31  -1.6737334014194826E-31
9.7E-5                    1.0353807353500332E-31   -8.672519443816439E-32   5.240951977249297E-32    1.2193700367888475E-31   -1.5046714498930646E-30  1.984310291390135E-31    9.874453266408382E-31    -1.6875926495036516E-31  -2.642886724495532E-31   -2.8615858121663766E-31  -1.7868094159242798E-31