% Model:              Untitled.mph
% Version:            COMSOL 6.0.0.405
% Date:               Jul 17 2025, 05:51
% Dimension:          1
% Nodes:              401
% Expressions:        11
% Description:        Point graph
% Time (s)                Displacement field, Y component Displacement field, Y component Displacement field, Y component Displacement field, Y component Displacement field, Y component Displacement field, Y component Displacement field, Y component Displacement field, Y component Displacement field, Y component Displacement field, Y component Displacement field, Y component
0                         -1.0175797332115278E-38  -6.254800058339059E-38   -7.02195744860304E-36    -3.1510482254683447E-35  -5.591300634931089E-34   -1.0644945977837989E-33  -3.459583465952916E-33   -3.479157002438679E-32   1.2083571805157912E-37   3.0356399310613E-37      1.9204226262789779E-32
5.0E-7                    1.4012369316277554E-30   7.824591076156594E-30    9.807644179741084E-28    4.4028157034494386E-27   8.786295792801036E-26    -2.637013889111885E-25   4.784973097710922E-25    5.562243301108784E-24    -1.6807976757676824E-29  -4.1486892414297236E-29  -2.8025755112781047E-24
1.0E-6                    -9.1981923690048E-31     3.690305993315569E-30    -9.20071435853729E-28    -3.617577073837704E-27   -1.4055877804982352E-25  1.9826629963595565E-24   -1.3363907918532098E-24  -1.1215220019162659E-23  1.4056755717795032E-29   -1.2745135409670213E-29  4.049153021140164E-24
1.5E-6                    -5.9812214554117546E-30  -7.901060657290423E-29   -1.7209465250453244E-27  -1.0499331527150323E-26  1.6033441813122525E-25   -1.0369515781305835E-23  2.0227571718314533E-24   2.391606078823364E-23    4.7783492807618026E-29   6.329988379863555E-28    -4.5395893125196615E-24
2.0E-6                    3.172513064208671E-29    2.7499849173490796E-28   1.0382909893044907E-26   6.644575018164724E-26    5.778041540635596E-25    6.187157088167549E-24    -8.219287600980877E-24   6.981069926318745E-24    -3.388121537924569E-28   -2.9387690880578857E-27  3.97202825615133E-24
2.4999999999999998E-6     -7.517941974545453E-29   -4.074442044142866E-28   -3.176881510851224E-26   -9.610073707953227E-26   -3.5466329607146004E-24  4.9002627787661495E-23   -3.669974373056906E-23   -2.5513863729202675E-22  1.2677508973018552E-27   5.3853311402612936E-27   1.6047938691616142E-23
3.0E-6                    4.950022256741459E-29    -2.5176943850507768E-28  4.870005258102181E-26    -2.1116729489795756E-25  2.6964177415681057E-24   -6.024746901320565E-23   2.724648952719286E-22    6.064565521101169E-22    -2.4324776233862224E-27  6.91192587944001E-28     1.3451679830153343E-23
3.5E-6                    1.3247154224832E-28      4.995244870515894E-28    7.853796451099117E-26    -4.385813106359105E-25   1.9179104102971426E-23   -4.908414042165174E-22   -2.9090350033292533E-22  -1.5907482481518724E-22  -1.4869101093460716E-28  -1.0085947561627542E-26  1.329277674606421E-22
4.0E-6                    -2.13592431785468E-28    6.061709187844752E-27    -1.2659482876166136E-25  2.7908174987737197E-24   -1.908953827662492E-23   7.453024394957931E-22    -2.1660911913356393E-21  -2.173407545574047E-21   1.1751316866500197E-26   -6.584078479918648E-27   6.026566930434325E-22
4.5E-6                    5.995988008486731E-28    -8.679386237151527E-27   -1.0732045442543617E-24  2.8002116973570318E-24   -1.675742305835624E-22   1.014790778794889E-21    2.0164224074055336E-21   -1.1534756006054727E-20  -2.195780909224405E-26   -1.3004961482944204E-26  2.0805751684902126E-21
4.9999999999999996E-6     -1.6560028008124677E-27  -3.0974475923344884E-26  -4.413755081665948E-25   -5.66453960668449E-24    2.3489476008360143E-22   -1.1731016070468986E-20  1.47222641685569E-20     4.255161078715606E-22    -4.12725702822396E-26    7.872924822124051E-26    5.38430663868342E-21
5.5E-6                    -1.120693823544619E-26   6.02189770802292E-26     8.840897008399595E-24    -4.432756343420688E-23   7.369456847575377E-22    -8.431245123364425E-21   -1.0258088492665708E-20  4.089691864462925E-20    2.704331520340397E-25    1.5487788521369818E-25   2.030366774975413E-20
6.0E-6                    3.5487568917345407E-26   -8.645702677879188E-26   7.397815619420471E-24    -2.32317689712839E-22    -2.0701759864814764E-21  4.696911502799716E-20    -9.953271834862264E-20   -8.373204276280052E-20   1.4924733093234522E-25   3.4988345738088605E-25   8.33522202342355E-20
6.5E-6                    9.966132463383977E-26    -7.965696067073398E-26   -6.462363775981458E-23   4.222031950959319E-24    -4.133578022743672E-21   -4.281171231169325E-20   -2.6501160193506835E-20  -4.426072702942076E-19   -2.2670546839695052E-24  -7.416482279084072E-26   2.4595516721304884E-19
7.0E-6                    -3.4593628428538173E-25  2.6506531751214366E-24   -1.1695690563466518E-22  1.3879624556890456E-21   1.0324696097279799E-21   -5.227823368394491E-19   2.6753632001049596E-19   -9.896888598006112E-19   -3.852471124935514E-25   -6.852398866997061E-24   7.617030666877122E-19
7.499999999999999E-6      -7.189609800135689E-25   -5.130529988104589E-25   1.9636949270144016E-22   -2.8051802063756997E-21  -2.708822933294865E-20   -8.401709815391494E-19   -2.7645203063299035E-19  -1.983064357258789E-18   1.3537377597208156E-23   -1.1453447131385204E-23  2.6778304432529856E-18
8.0E-6                    2.4022092900090092E-24   -2.824101658461589E-23   4.140479203872739E-22    -2.324380364466069E-20   -1.4106766080613866E-19  -2.9740277099627333E-19  -2.2227879099665537E-18  -5.27719348074214E-18    8.15396490905369E-24     6.545802636156103E-23    7.873557667755012E-18
8.5E-6                    4.78876951298535E-24     -8.333513004966062E-24   -1.936967670556246E-21   -3.973556391281927E-20   -2.9905197232688405E-19  -2.093066700946622E-18   -3.3174510448834444E-18  -2.0041102684067362E-17  -4.5572591838113026E-23  2.0092999325429252E-22   2.078886720077842E-17
9.0E-6                    -1.3680294178798516E-23  2.0784568618780414E-22   -7.776632557113403E-21   -4.648860260110436E-20   -8.205608018376644E-19   -1.5570973657924297E-17  -5.2209003538545435E-18  -6.159272993460333E-17   -6.478255738011522E-23   -2.3515397194194423E-22  6.133842472121959E-17
9.499999999999999E-6      -3.039970687512833E-23   1.916934714756667E-22    -1.1160288395321492E-20  -2.7731439245741414E-19  -3.2861180105601834E-18  -4.747129067507978E-17   -2.369660077043164E-17   -1.529576239103865E-16   1.0260495646426899E-22   -1.1927038952772478E-21  1.8907416174475337E-16
9.999999999999999E-6      6.473788336065612E-23    -1.1740955593913259E-21  -1.9172823566960474E-20  -1.2438900654161207E-18  -1.0376225364578328E-17  -9.799658194908284E-17   -7.986656960291072E-17   -4.1890344632537673E-16  5.851012995492929E-22    1.5444714294992242E-21   5.374010730552178E-16
1.05E-5                   1.7525014494508935E-22   -2.0603833831110376E-21  -1.1437331431972935E-19  -3.4968502910719855E-18  -2.7635403986882443E-17  -2.12341037188865E-16    -1.940176023182795E-16   -1.2571353487611912E-15  9.89906353665052E-22     1.0367028195103749E-20   1.4492020669028273E-15
1.1E-5                    -2.587765840542527E-22   4.568944066442586E-21    -4.90681687587423E-19    -8.902232758726733E-18   -7.567463629087811E-17   -5.831186798622227E-16   -4.6441163668513665E-16  -3.4096140333356584E-15  -4.826151501222591E-22   1.0718590878926093E-20   3.894955206761756E-15
1.15E-5                   -9.380308585098713E-22   1.3974668392140345E-20   -1.4189808724698483E-18  -2.5278371248996207E-17  -2.126841657137727E-16   -1.5997380625995124E-15  -1.2524540427780276E-15  -8.414184736020335E-15   -2.5900720267423425E-21  2.200346026421679E-21    1.0253542811274373E-14
1.2E-5                    7.238554544464695E-22    -1.0447770522181869E-20  -3.6092815200923214E-18  -7.368977144139457E-17   -5.681022070391419E-16   -3.9054897010482095E-15  -3.3667505820430255E-15  -2.0723803685952567E-14  1.0914219562786784E-20   8.39921454540378E-20     2.5799491534218894E-14
1.2499999999999999E-5     4.315292255582044E-21    -7.414241163942024E-20   -1.0159470964829033E-17  -2.0283638348670364E-16  -1.4423946606299493E-15  -8.930626650298335E-15   -8.356504932797495E-15   -5.132508054800376E-14   6.321377218260298E-20    4.2370589496429138E-19   6.260275558829184E-14
1.3E-5                    -1.023648691947355E-21   -2.9496508377239763E-20  -3.083600315593926E-17   -5.311270874691772E-16   -3.5894362934249864E-15  -2.0371571873069406E-14  -1.9752889427227637E-14  -1.2163991650439745E-13  1.3646586090596766E-19   1.1722066832766938E-18   1.4850655443032861E-13
1.35E-5                   -1.8497661186656846E-20  2.5188023989949103E-19   -8.846055162199289E-17   -1.3528632932900849E-15  -8.797519495866886E-15   -4.648640023728585E-14   -4.62999525024755E-14    -2.725244588816808E-13   2.094345947688254E-19    3.099664356515594E-18    3.4255760316331863E-13
1.4E-5                    -8.80424083279306E-21    3.0335763211195276E-19   -2.331915996798016E-16   -3.3778445135772204E-15  -2.0949147809947073E-14  -1.0282353928829969E-13  -1.071361998703118E-13   -5.892629370725882E-13   6.147196978884674E-19    9.349757254691002E-18    7.581836269010567E-13
1.45E-5                   5.885109163448694E-20    -7.392026140848366E-19   -5.899091435797264E-16   -8.255341173274723E-15   -4.8107095379675215E-14  -2.1628104231315677E-13  -2.3937965886795367E-13  -1.2418529785997562E-12  2.525905888650063E-18    2.7631512898392874E-17   1.599665848028693E-12
1.4999999999999999E-5     6.020266426416735E-20    -2.095479741667105E-18   -1.4824501119313388E-15  -1.962850057326373E-14   -1.0685240482054886E-13  -4.343170682464265E-13   -5.13209162263184E-13    -2.5201389301833112E-12  7.814979907024117E-18    7.567052671727882E-17    3.2146113198406254E-12
1.55E-5                   -1.9124556427518788E-19  -5.569742821908372E-19   -3.681613523842846E-15   -4.510918364295813E-14   -2.307068568027688E-13   -8.436822063092415E-13   -1.0602318048651307E-12  -4.85030462139709E-12    1.9184942808575348E-17   2.0055394985421434E-16   6.138393762143413E-12
1.6E-5                    -4.2553306638005772E-19  3.6815734473654805E-18   -8.864229206992315E-15   -1.000320899536143E-13   -4.841516762942131E-13   -1.5939943533244785E-12  -2.107729055442109E-12   -8.800326484102728E-12   4.583596579935861E-17    5.232012737308239E-16    1.1066369804290602E-11
1.6499999999999998E-5     8.772118893046736E-20    -2.503029159756717E-19   -2.053791450058213E-14   -2.1455315704610094E-13  -9.817211316453003E-13   -2.9119773247017634E-12  -4.000435659995117E-12   -1.5040943708872513E-11  1.1941515810977006E-16   1.3200722816930733E-15   1.8681298449266596E-11
1.7E-5                    9.38294622941633E-19     -2.4654512934266574E-17  -4.5950554459425116E-14  -4.4535810040487653E-13  -1.909034136001846E-12   -5.1115365300435E-12     -7.203975076356523E-12   -2.413077287351041E-11   3.1530265446371316E-16   3.1955919711265403E-15   2.9332850050611195E-11
1.75E-5                   -6.168161178941389E-19   -5.927984491184528E-17   -9.972309431709746E-14   -8.907617019157672E-13   -3.540428771703626E-12   -8.625233910965077E-12   -1.2271821737317205E-11  -3.605411946507799E-11   7.79560838090777E-16     7.475621237793939E-15    4.270537166764432E-11
1.8E-5                    -6.2230184047072984E-18  -8.101953512811007E-17   -2.1001672794308474E-13  -1.7045993371744859E-12  -6.237148772428881E-12   -1.398778037242454E-11   -1.966298980823359E-11   -4.981476428963425E-11   1.8120803717744826E-15   1.69754727479073E-14     5.7693413800790264E-11
1.85E-5                   -1.1133132328252E-17     -1.3255742841291788E-16  -4.277528646107512E-13   -3.101944674626919E-12   -1.037820041876129E-11   -2.153975719708412E-11   -2.928870600024297E-11   -6.365044235319241E-11   4.106984927695356E-15    3.7259613089072453E-14   7.255021879203816E-11
1.8999999999999998E-5     -1.0263947239874547E-17  -3.9214858195296946E-16  -8.384439774071014E-13   -5.3441476481786584E-12  -1.615603727538185E-11   -3.07942924932081E-11    -4.0039897621729424E-11  -7.586053063194914E-11   9.206704783591678E-15    7.857553923680061E-14    8.50812983975353E-11
1.95E-5                   -1.91257113265654E-17    -1.1127401629550098E-15  -1.5747810598633274E-12  -8.674903768724013E-12   -2.325878512178577E-11   -4.005887021908572E-11   -5.0018522723802545E-11  -8.523376439999079E-11   2.0145055563739145E-14   1.587743519920237E-13    9.27284519266432E-11
1.9999999999999998E-5     -8.19719659624633E-17    -2.5320953849166102E-15  -2.8255443133121873E-12  -1.3169911676406737E-11  -3.067641366384154E-11   -4.712164433841105E-11   -5.775812054642024E-11   -9.032663396225308E-11   4.239113844019614E-14    3.072050048448372E-13    9.292541217984418E-11
2.05E-5                   -2.4086685283401957E-16  -5.133306988919522E-15   -4.828228754146064E-12   -1.8516205652886666E-11  -3.695903401078646E-11   -5.0674983178429604E-11  -6.325367310966149E-11   -8.868504197440844E-11   8.557473765173674E-14    5.683114690401237E-13    8.408578000543834E-11
2.1E-5                    -5.139426073934617E-16   -1.0437902431049903E-14  -7.818349033243967E-12   -2.3874011735340002E-11  -4.0907215156363126E-11  -5.082161637591289E-11   -6.714501332864408E-11   -7.778324076726117E-11   1.6648066065367746E-13   1.0017547836703981E-12   6.638276984169208E-11
2.1499999999999997E-5     -9.925181662376113E-16   -2.190160814756071E-14   -1.1908904329478898E-11  -2.8051373796885543E-11  -4.2096609926444085E-11  -4.78213414293577E-11    -6.855261220420548E-11   -5.701855207508655E-11   3.127941459862675E-13    1.6744147945293363E-12   4.087188741735964E-11
2.2E-5                    -2.070122070640104E-15   -4.547638085921547E-14   -1.6923022425308846E-11  -3.001214797786922E-11   -4.061204840227026E-11   -4.0690212266592754E-11  -6.44220199243553E-11    -2.774273863593386E-11   5.654413987551903E-13    2.640427524063856E-12    7.420710387185875E-12
2.2499999999999998E-5     -4.631224787903109E-15   -9.057719170017422E-14   -2.2287202333062052E-11  -2.932158437022318E-11   -3.620532413220542E-11   -2.7707447497578946E-11  -5.1690941128542444E-11  9.501295064231116E-12    9.765290935870636E-13    3.910503648593347E-12    -3.592293372970027E-11
2.3E-5                    -1.0087495690822404E-14  -1.731517996419899E-13   -2.7110473738954736E-11  -2.605760388918214E-11   -2.7859886972602066E-11  -8.154467217490005E-12   -2.947163270218972E-11   5.6922584493303286E-11   1.6007186711620802E-12   5.420559625119935E-12    -9.111987240362362E-11
2.35E-5                   -2.0579845385759336E-14  -3.213013428335719E-13   -3.0434934896234474E-11  -2.0301962042598537E-11  -1.4316967342029823E-11  1.7303945960587423E-11   1.8662560125150535E-12   1.1744734464541474E-10   2.479315424851099E-12    7.016467941390135E-12    -1.585544465387848E-10
2.4E-5                    -3.995920126174737E-14   -5.810816073209588E-13   -3.144370380273919E-11   -1.1886223737239437E-11  5.0871853629782756E-12   4.818659708453243E-11    4.3073824810938446E-11   1.913602507213489E-10    3.6167288623396023E-12   8.469034922698443E-12    -2.3792012237332263E-10
2.45E-5                   -7.567900648423149E-14   -1.018826884089025E-12   -2.943006646458884E-11   -6.445134870784974E-13   3.030266268765517E-11    8.54180780285583E-11     9.584321436173828E-11    2.766479161690988E-10    4.949441510779697E-12    9.518767038921346E-12    -3.295427062196207E-10
2.4999999999999998E-5     -1.4074513113906313E-13  -1.7174450713637561E-12  -2.3663874623575616E-11  1.3490631646400433E-11   6.121861488404818E-11    1.304834894572722E-10    1.6035050614240888E-10   3.724979552873129E-10    6.313250441079007E-12    9.929729923442097E-12    -4.333486612272986E-10
2.55E-5                   -2.545392106756694E-13   -2.7643339189436813E-12  -1.3534743655128247E-11  3.099819651625037E-11    9.810722684051276E-11    1.8363014895656065E-10   2.347233647080049E-10    4.802120229119637E-10    7.428366673447534E-12    9.521001792606007E-12    -5.469082895497489E-10
2.6E-5                    -4.4220588886616965E-13  -4.226074525192873E-12   1.0015722290613977E-12   5.3002121091359767E-11   1.4110154806870665E-10   2.431240603467959E-10    3.172357897733926E-10    5.994542704174269E-10    7.934678965224458E-12    8.159662197902578E-12    -6.655408301819339E-10
2.65E-5                   -7.331796013569861E-13   -6.104812957742018E-12   1.9284506200223536E-11   8.022232982674744E-11    1.8916493935507693E-10   3.059458008417688E-10    4.070875370570949E-10    7.24744941824634E-10     7.497221396045597E-12    5.733671780428581E-12    -7.836727547504916E-10
2.7E-5                    -1.1585129155169924E-12  -8.279804945269622E-12   4.0570460222100485E-11   1.1161544850982971E-10   2.3987241919989063E-10   3.6898303888055874E-10   5.020464360851171E-10    8.468008935267022E-10    5.948023560480272E-12    2.1346790600043486E-12   -8.948709534819682E-10
2.7499999999999998E-5     -1.7438983741346767E-12  -1.0454039812043298E-11  6.474940350097077E-11    1.4483854729412457E-10   2.90716628538893E-10     4.2994129417279726E-10   5.970246230399179E-10    9.569572651162574E-10    3.36534289975868E-12     -2.7497583507296012E-12  -9.913826233487599E-10
2.8E-5                    -2.493425146160252E-12   -1.2141745966279253E-11  9.205124171100911E-11    1.7848883526267304E-10   3.4077362228547217E-10   4.875611531764744E-10    6.865092553738805E-10    1.0498025611524657E-9    -4.60443601925653E-15    -9.051425441738707E-12   -1.0654175542650329E-9
2.8499999999999998E-5     -3.362655573232859E-12   -1.2736560863131986E-11  1.2201980899289113E-10   2.1322873341781067E-10   3.9046349103826966E-10   5.406892969077186E-10    7.672949896479653E-10    1.1217255895097263E-9    -3.958973185721623E-12   -1.6917302370625064E-11  -1.110660491810746E-9
2.9E-5                    -4.23140070337105E-12    -1.1676516223403604E-11  1.5337529053412171E-10   2.4990358975543785E-10   4.3893307267228527E-10   5.86359505733929E-10     8.370964130585184E-10    1.1668790750394047E-9    -8.515898010780574E-12   -2.6439621476210637E-11  -1.1210697456242181E-9
2.95E-5                   -4.901891595868853E-12   -8.659244137301445E-12   1.8518787325822595E-10   2.8672385783045616E-10   4.818557046286946E-10    6.185130977254361E-10    8.908315574825155E-10    1.1744488707452446E-9    -1.3900087647388884E-11  -3.7567666611753606E-11  -1.0883690152450393E-9
2.9999999999999997E-5     -5.150173452955256E-12   -3.7864072170168454E-12  2.1750428361668917E-10   3.1902186032626574E-10   5.12613652336376E-10     6.291878888974649E-10    9.197054945179941E-10    1.1304417820700676E-9    -2.0364451399258832E-11  -5.0118130876263135E-11  -1.0020449867591236E-9
3.05E-5                   -4.8282788073303456E-12  2.49003741860374E-12     2.500887173486814E-10    3.419344816399246E-10    5.256377881237245E-10    6.114103646206427E-10    9.139994357181967E-10    1.022269777886199E-9     -2.8026822930721156E-11  -6.385049896656808E-11   -8.51731535580623E-10
3.1E-5                    -3.957712453872488E-12   9.628833771703121E-12    2.8091405642598233E-10   3.528350183055235E-10    5.175580253869982E-10    5.604961967453116E-10    8.655256381876445E-10    8.406517270438974E-10    -3.682820051278066E-11   -7.838942243085268E-11   -6.286581387091108E-10
3.15E-5                   -2.7198152029146736E-12  1.730599095855043E-11    3.0662344745985555E-10   3.5083991572992153E-10   4.847426526477531E-10    4.72255226169544E-10     7.667316023811587E-10    5.775452777825146E-10    -4.654874367080428E-11   -9.295883181741313E-11   -3.254570578110826E-10
3.2E-5                    -1.2966179420798527E-12  2.555274829420702E-11    3.241143545370752E-10    3.342915747929719E-10    4.2109333830740657E-10   3.410003792345374E-10    6.083893551455729E-10    2.2516878843672495E-10   -5.6810676148567265E-11  -1.0629962997185978E-10  6.347131089535314E-11
3.25E-5                   3.5421072270472746E-13   3.465431613248379E-11    3.3071469075310457E-10   2.993725686230262E-10    3.198186906733566E-10    1.6071962271512464E-10   3.8022896055022044E-10   -2.21292500337509E-10    -6.711902201237828E-11   -1.1707622258132173E-10  5.404088034556626E-10
3.2999999999999996E-5     2.5984462974252388E-12   4.493939454699054E-11    3.2302462593384267E-10   2.414861240699147E-10    1.7718688920440695E-10   -7.17512598687468E-11    7.545512735938958E-11    -7.616854410722232E-10   -7.696401357588311E-11   -1.2441385266774466E-10  1.1030249667003182E-9
3.35E-5                   5.955912728396042E-12    5.663307140663543E-11    2.9691212811178555E-10   1.5768779346064007E-10   -6.7464961867520896E-12  -3.5536865104303026E-10  -3.0559586075103054E-10  -1.3925169174651855E-9   -8.582959403155662E-11   -1.2787229364918602E-10  1.7438209078002958E-9
3.4E-5                    1.074248517725592E-11    6.979813443923677E-11    2.491745364461227E-10    4.7303596576335664E-11   -2.3116366618377282E-10  -6.862002061415367E-10   -7.574939471369139E-10   -2.107874157976338E-9    -9.297114676319022E-11   -1.267978705207136E-10   2.4498303692085583E-9
3.45E-5                   1.6813949256826507E-11   8.425340356181173E-11    1.7840649782412472E-10   -8.969017861735908E-11   -4.96552286246621E-10    -1.058862756038945E-9    -1.2749492845999881E-9   -2.8960385433541917E-9   -9.714077794470713E-11   -1.1981103526282995E-10  3.2029128131455E-9
3.5E-5                    2.3657649397423034E-11   9.942344140682884E-11    8.372850193955212E-11    -2.540896108382196E-10   -8.024556299658016E-10   -1.4664298072515308E-9   -1.853760560696461E-9    -3.736010223244265E-9    -9.662218012458077E-11   -1.0503594438554743E-10  3.980702122421468E-9
3.5499999999999996E-5     3.076277305285558E-11    1.1426228032863507E-10   -3.661764365403815E-11   -4.466745703151436E-10   -1.1438044799965393E-9   -1.899678271065678E-9    -2.485742545829409E-9    -4.598950718784105E-9    -8.966477970721897E-11   -8.080730787628402E-11   4.756753374055034E-9
3.6E-5                    3.7923644405225384E-11   1.2741469008753262E-10   -1.8458605175465278E-10  -6.661097368004977E-10   -1.5107874539314024E-9   -2.3465835991520128E-9   -3.1544508689937525E-9   -5.451762474365987E-9    -7.499239485720456E-11   -4.6181336338064436E-11  5.4992131826840975E-9
3.65E-5                   4.521055788888766E-11    1.3751333054015137E-10   -3.603606615631783E-10   -9.078372222367745E-10   -1.891989112829946E-9    -2.7917155566152026E-9   -3.836571245002868E-9    -6.25712895782767E-9     -5.2001760798923014E-11  -9.43365452103325E-13    6.169842724034442E-9
3.7E-5                    5.269144791588162E-11    1.4326519564798417E-10   -5.61481218005723E-10    -1.1646197931883689E-9   -2.2756833470212548E-9   -3.2153867077945425E-9   -4.504859383866628E-9    -6.970939823263409E-9    -2.0568406416821794E-11  5.4749872865033556E-11   6.725085857199853E-9
3.75E-5                   6.018497948740425E-11    1.431659320659059E-10    -7.836327004460442E-10   -1.4273473921374767E-9   -2.6469932521402963E-9   -3.5934411988183344E-9   -5.127419944207746E-9    -7.542688037093474E-9    1.9309326790643212E-11   1.2077071087824712E-10   7.118376942179944E-9
3.7999999999999995E-5     6.717641226561214E-11    1.3518720582637575E-10   -1.0214663977753357E-9   -1.684959316176806E-9    -2.9850036823408928E-9   -3.8984970689072925E-9   -5.665834565613551E-9    -7.919817313650575E-9    6.769421616542976E-11    1.970418801983496E-10    7.302341808991699E-9
3.85E-5                   7.282376910446163E-11    1.1696029382984264E-10   -1.2681251502468797E-9   -1.924065873679692E-9    -3.2642926160251968E-9   -4.102261041148755E-9    -6.077171057692944E-9    -8.051370375248461E-9    1.2453738976430313E-10   2.8295505214266667E-10   7.231068050177268E-9
3.9E-5                    7.602855346691105E-11    8.647422831125564E-11    -1.5141656522126333E-9   -2.1293832883280384E-9   -3.459264403652632E-9    -4.177531428617272E-9    -6.318260045962488E-9    -7.888497307211616E-9    1.8930609975992524E-10   3.7665244211666663E-10   6.862657422479901E-9
3.95E-5                   7.566497386088089E-11    4.267468839579438E-11    -1.7475218830175037E-9   -2.2848227837572412E-9   -3.5463651566183913E-9   -4.098788040431572E-9    -6.3470656444726525E-9   -7.384681706605312E-9    2.60797923937164E-10     4.74992500156673E-10     6.161121491216166E-9
3.9999999999999996E-5     7.091455374305624E-11    -1.458029873950302E-11   -1.9548508364792788E-9   -2.3742272686756715E-9   -3.5032075350915054E-9   -3.841875902569715E-9    -6.121545257292829E-9    -6.498205294419648E-9    3.3729720297014466E-10   5.742392213881647E-10    5.0974942701022736E-9
4.0499999999999995E-5     6.139115064667981E-11    -8.501843397291461E-11   -2.1227612213765517E-9   -2.381687401819052E-9    -3.3080349486480747E-9   -3.384505418420847E-9    -5.6009920039222455E-9   -5.1954567512281866E-9   4.167566077688466E-10    6.705365706734492E-10    3.6517377267633825E-9
4.1E-5                    4.685277216653643E-11    -1.6823068278054431E-10  -2.2375035495472825E-9   -2.2922242949208053E-9   -2.941360423754814E-9    -2.7083111005329612E-9   -4.750880717851335E-9    -3.45352674634023E-9     4.966341289035966E-10    7.595732662358143E-10    1.8160492191712242E-9
4.15E-5                   2.6777832845653325E-11   -2.633988914748852E-10   -2.283685644730183E-9    -2.0926822172335464E-9   -2.3878555649368746E-9   -1.8012751600834422E-9   -3.5470288664485518E-9   -1.2631813835563575E-9   5.735103088477516E-10    8.360346971014327E-10    -4.020994763244583E-10
4.2E-5                    3.0163540448776884E-13   -3.6883847175103966E-10  -2.2439311321260767E-9   -1.7718331176608551E-9   -1.6370355723177322E-9   -6.593397810918779E-10   -1.9768086086167767E-9   1.3670211712826684E-9    6.429501937599167E-10    8.936540085125378E-10    -2.9783623029724536E-9
4.2499999999999996E-5     -3.3390431944147516E-11  -4.819124261148498E-10   -2.1005060689653243E-9   -1.3200786667337257E-9   -6.841155463218528E-10   7.122944507017152E-10    -4.0072461028203915E-11  4.407141276048904E-9     6.997699034281129E-10    9.257318880118758E-10    -5.870350515572811E-9
4.2999999999999995E-5     -7.462792517885257E-11   -5.993900849958862E-10   -1.8381174556365897E-9   -7.305492168536823E-10   4.679482951356959E-10    2.297454541360207E-9     2.2476814900614228E-9    7.804335859565672E-9     7.383953817840287E-10    9.255044549683063E-10    -9.016140111497102E-9
4.35E-5                   -1.2315266732529144E-10  -7.177626720537041E-10   -1.4463489029074112E-9   -1.831608882989336E-12   1.8067036045163287E-9    4.06768145295714E-9      4.8515882976355634E-9    1.14829617187035E-8      7.530384738467382E-10    8.862929208380301E-10    -1.2333547133028312E-8
4.4E-5                    -1.7825058384026794E-10  -8.330102572528891E-10   -9.207100343160818E-10   8.599245094854633E-10    3.309852032066827E-9     5.982439449103735E-9     7.71639170395227E-9      1.534528907095524E-8     7.378111919258123E-10    8.018013436243709E-10    -1.5721079349149192E-8
4.45E-5                   -2.387995273049885E-10   -9.398856206836855E-10   -2.6215727751582084E-10  1.841060399926142E-9     4.944957027821171E-9     7.99020541012272E-9      1.0768567908784792E-8    1.9272268679385667E-8    6.870033304913567E-10    6.665915240438901E-10    -1.9060078398110854E-8
4.4999999999999996E-5     -3.031831745207131E-10   -1.0313871146578663E-9   5.241162914153324E-10    2.921283983564618E-9     6.668102142665502E-9     1.002882610864553E-8     1.3919097212293838E-8    2.3124271083260254E-8    5.954699278678618E-10    4.764780411176609E-10    -2.221776917829269E-8
4.5499999999999995E-5     -3.692982674628257E-10   -1.099058804239776E-9    1.4291306468927192E-9    4.073538620130342E-9     8.423128729828704E-9     1.2024971836135527E-8    1.7064535725496496E-8    2.674286428148341E-8     4.589344441495922E-10    2.2888686854447962E-10   -2.5051552077609607E-8
4.6E-5                    -4.347419511724276E-10   -1.133993735095022E-9    2.4388034543277136E-9    5.263343439033654E-9     1.0143449368281855E-8    1.3894260283855556E-8    2.0086376501840184E-8    2.995514370157779E-8     2.742251715425228E-10    -7.658357053114681E-11   -2.7413961930314978E-8
4.65E-5                   -4.969462720784308E-10   -1.12770890031005E-9     3.531596309021483E-9     6.449144719589516E-9     1.1755541183426228E-8    1.554345647402326E-8     2.28507286191774E-8      3.2580177792875426E-8    3.962657372681581E-11    -4.3756157592797823E-10  -2.91572271973727E-8
4.7E-5                    -5.530282384721642E-10   -1.0722845537261723E-9   4.67705803621357E-9      7.583563746114224E-9     1.31814581378753E-8      1.6874649651770043E-8    2.521062140235173E-8     3.4435659979051746E-8    -2.4463489911642854E-10  -8.487273295865228E-10   -3.013791280229163E-8
4.7499999999999996E-5     -5.994616238355343E-10   -9.60114701734226E-10    5.836369440151971E-9     8.614214118916068E-9     1.4339467362126939E-8    1.7790182872533696E-8    2.701163368653994E-8     3.53445736938979E-8      -5.759561974178038E-10   -1.3020554286996134E-9   -3.022312062059222E-8
4.8E-5                    -6.318872909073708E-10   -7.841126106304732E-10   6.964099964368363E-9     9.484067119578582E-9     1.5144611001912504E-8    1.8197065276737643E-8    2.8099402069278055E-8    3.514320018171561E-8     -9.491092766581994E-10   -1.786826040882792E-9    -2.9298178315383956E-8
4.85E-5                   -6.452151899695392E-10   -5.386187519194294E-10   8.009704266237075E-9     1.013288215245265E-8     1.551151029697159E-8     1.8010512202746903E-8    2.832716423528412E-8     3.3690049394770106E-8    -1.35615756807495E-9     -2.2890305397145725E-9   -2.727410329050058E-8