% Model:              Untitled.mph
% Version:            COMSOL 6.0.0.405
% Date:               Jul 16 2025, 15:18
% Dimension:          1
% Nodes:              401
% Expressions:        11
% Description:        Point graph
% Time (s)                Displacement field, Y component Displacement field, Y component Displacement field, Y component Displacement field, Y component Displacement field, Y component Displacement field, Y component Displacement field, Y component Displacement field, Y component Displacement field, Y component Displacement field, Y component Displacement field, Y component
0                         3.7288305231994654E-33   4.4109834281933654E-35   4.193344278341552E-34    4.774213968454725E-34    2.231191014994284E-34    4.6387948761084685E-35   -4.1625349538368597E-32  -8.081457010841136E-33   -4.3294870300924234E-33  -1.414011414531034E-33   -3.9624274404822906E-36
5.0E-7                    -4.302616787245831E-25   -2.4990063057208905E-26  6.047601543378429E-27    9.464396794401474E-25    2.0175747882928595E-25   4.940092679464297E-26    -1.3644095355231685E-24  2.558834099861083E-25    4.0129605977612798E-25   -3.840476975416865E-26   -3.833856313626563E-28
1.0E-6                    1.5947564888927506E-25   5.5282735857548E-26      -1.9133986733878364E-25  -5.11961046995799E-24    -1.5704206387544535E-24  -3.67788466038379E-25    5.343121981620996E-23    5.9650585507780534E-24   3.0315960452403814E-25   2.0731324771145385E-25   7.829882086677826E-27
1.5E-6                    7.978999048090194E-24    3.855905604177814E-25    7.549693832008061E-25    6.0489200034191455E-24   3.34787808985375E-24     8.307185492812239E-25    -2.483218562414364E-22   -2.3919485172063662E-23  -2.1115016488921036E-24  3.0352758747876E-24      -3.167289149050547E-26
2.0E-6                    -3.940872185605332E-23   -6.432038014845335E-24   -4.189942075209253E-24   1.1870134046551738E-23   -1.5694451830434E-25     -3.650507881044419E-25   4.980079144266325E-22    4.390616858971314E-23    2.491536169425086E-23    -1.471924184112929E-23   6.277906965013124E-26
2.4999999999999998E-6     -4.0996917643000495E-23  2.0266030616260938E-23   9.655520348644728E-24    -1.4647060663315487E-23  -6.594602478575843E-24   -1.9531533020326915E-24  9.05577088664705E-23     -3.1731827501564943E-22  -1.9804770130435028E-22  1.2062665053636533E-23   -4.2094129778128754E-26
3.0E-6                    3.696517768179674E-22    1.0648601621526471E-23   -6.620154767353774E-24   -6.220504810977629E-23   3.804888129099712E-24    5.975704210649072E-24    -2.2577441702894546E-21  4.2332617499548187E-22   3.14044984743529E-22     7.112168367723724E-23    -1.5084400750007543E-25
3.5E-6                    8.020204020386598E-22    -3.80314118903948E-23    2.4126307398915542E-23   7.615856450646507E-23    1.0354858393334688E-23   1.1138043517961679E-24   3.301474231280568E-21    3.857229786099228E-21    1.094943234586542E-21    -3.5595208803521282E-22  4.695141053508135E-25
4.0E-6                    -2.6919246652152255E-23  -3.770383351268673E-23   4.9132265590325086E-23   3.892670255571355E-22    8.097903031139137E-24    -3.4349105122629175E-23  -9.92735891187879E-22    -5.729790597542522E-21   -2.5098851154761714E-21  1.0219182677229294E-22   -5.119806613148541E-26
4.5E-6                    -8.59294064244342E-21    -6.088544896766648E-22   -4.0944098722894094E-22  -1.2126335499634268E-21  -1.6056845823570756E-22  -1.3880107962807084E-23  -3.5411942648752555E-20  -4.1666026146669897E-20  -7.304265372691637E-21   2.243448907441391E-21    -1.837894254934041E-24
4.9999999999999996E-6     -1.1606868910479365E-20  1.058786256443212E-21    1.1276583153218698E-22   -2.3753627542458873E-21  -1.419818872181853E-22   1.564201994014387E-22    9.317815798585297E-20    1.6431930143518406E-20   1.107445557067282E-21    -3.1248140679277206E-21  1.5469667067882047E-24
5.5E-6                    9.740505200732999E-20    8.204011316463276E-21    2.275566501354339E-21    1.1026107781779013E-20   1.3915542273575845E-21   1.6472537391389285E-22   1.5832301903897166E-19   2.8751207288136425E-19   4.013542374691023E-20    -1.4732821584620073E-20  7.718797662204466E-24
6.0E-6                    2.566277777367826E-19    -4.927980254526582E-21   -2.7038629260327526E-21  1.9997441841349333E-20   1.8258984149578146E-21   -4.0836210017543984E-22  -9.429743917157724E-19   5.763572236380514E-20    6.640532321461745E-20    9.529562932403694E-21    -1.1231993203107419E-23
6.5E-6                    -2.399181107431939E-19   -5.602176346884007E-20   -1.3341932792778931E-20  -6.263724674568234E-20   -7.3264251598525E-21     -8.044484866275151E-22   -1.180751892427914E-18   -1.7150137814827527E-18  -2.5305124216675343E-19  5.4028800277453965E-20   -3.6821337903153646E-23
7.0E-6                    -9.423342085753552E-19   8.203178405913295E-21    2.2741755176521463E-20   -1.6127162073593768E-19  -1.4808367140981756E-20  3.593342130906209E-23    3.766542789289849E-18    -2.2954123792921695E-18  -9.95705053810079E-19    -6.32688571632059E-20    4.8858899581101914E-23
7.499999999999999E-6      2.8044601464392214E-18   3.1670783266175893E-19   1.0265114362961693E-19   1.9728275227114352E-19   2.4789957253243882E-20   1.1418468526983608E-21   4.607422611876093E-18    4.750029891419937E-18    6.326580454256766E-20    -3.405994378533212E-19   1.7468396826471808E-22
8.0E-6                    1.2078528019688894E-17   2.0279759391110944E-19   -7.832840549663041E-20   9.603836531358264E-19    8.056517500223786E-20    2.5231690964881623E-21   -1.8883960762222228E-17  1.2565831348146894E-17   4.526445425658839E-18    -3.113549519119707E-19   -7.367415244165663E-23
8.5E-6                    1.1544686006362492E-17   -1.077312089252625E-18   -6.556153496437864E-19   8.923497227933928E-20    -4.2166213695129927E-20  7.382136058039378E-21    -5.060557308304947E-17   -1.1656515137004447E-17  1.0935342148734559E-18   -4.740225995972342E-20   -6.123847723664438E-22
9.0E-6                    3.135548642278156E-18    -1.1572389906239946E-18  -1.5728682671215517E-19  -3.848362123576129E-18   -3.1725430481936606E-19  6.429667760369537E-21    -1.5605835049830563E-17  -7.492659165329237E-17   -2.6270131460842984E-17  -6.678262938380135E-19   -3.8045635377010554E-22
9.499999999999999E-6      7.189426552750864E-17    3.825797574873211E-18    3.131046928559033E-18    -4.626644595138824E-18   -8.039988521672381E-20   -3.6450727526477043E-20  8.502733090077877E-17    -7.543891325819811E-17   -4.433235606439236E-17   -3.051290488445899E-18   8.712140680274843E-22
9.999999999999999E-6      3.1087287286877925E-16   8.430701456089145E-18    4.2001701737907045E-18   8.586498753604563E-18    9.203197114209533E-19    -1.1713507850156693E-19  -8.873677992820788E-17   8.607047347889394E-17    2.3705827665233215E-17   -1.0571277348239866E-17  1.7099530941900036E-21
1.05E-5                   6.34189135883518E-16     -5.53040648300179E-19    -8.043139543318898E-18   2.6256228611033802E-17   9.154187325363104E-19    -3.502695201475174E-20   -9.553900819632195E-16   1.4474835711319498E-16   9.562175015771013E-17    -3.066205494190373E-17   2.7507230418847128E-21
1.1E-5                    1.048762601832206E-15    -1.2795290419548365E-17  -2.4162202101064753E-17  4.280767517269241E-18    -1.7948272567963827E-18  4.780476153660682E-19    -1.8617303155332253E-15  -5.113853661223502E-16   -1.8810387365377648E-16  -5.5282118162248726E-17  5.125068265675897E-21
1.15E-5                   2.571024945459799E-15    1.3445366865707825E-17   4.953526896102503E-18    -7.716101951515284E-17   -3.818488146394537E-18   8.955839549064644E-19    -1.6329284894053659E-15  -1.8713331842508068E-15  -8.94931157196365E-16    -6.18162585422025E-17    -7.181277524136441E-21
1.2E-5                    7.42312875907758E-15     8.180648437412557E-17    9.483167098870299E-17    -1.111456622525443E-16   1.1901434272651316E-18   -4.955030499269722E-19   -2.9871080529253748E-15  -2.714925235505801E-15   -1.0801334371459713E-15  -1.2522449051915071E-16  -6.011769792556389E-20
1.2499999999999999E-5     1.7655965329901045E-14   1.312354065637856E-16    1.0333679185483444E-16   8.363885312621065E-17    1.0091400262544767E-17   -3.749351800218105E-18   -1.3247379167708517E-14  -2.8369189667172494E-15  -1.854303599532124E-16   -5.155588936924808E-16   -8.628688467724231E-20
1.3E-5                    3.592218427298437E-14    1.9679921197031915E-16   -1.5140366916015589E-16  4.2470165917340524E-16   6.473767039279082E-18    -3.317657604844025E-18   -3.433692587267599E-14   -6.491095454386664E-15   -1.4093244330348934E-15  -1.4468166916304153E-15  1.4299927265531132E-19
1.35E-5                   7.358376937143248E-14    4.984579050476625E-16    -4.138067186896076E-16   3.285584421628214E-16    -1.599301772297253E-17   6.599877135781176E-18    -6.118883026415444E-14   -2.0810171005561122E-14  -1.030705402984862E-14   -2.7351801884726114E-15  6.302848543475887E-19
1.4E-5                    1.617817018659912E-13    1.1248313373916008E-15   1.1618617590451304E-16   -6.727149391805825E-16   -2.708956844686328E-17   1.654700083593956E-17    -1.0928617541072598E-13  -5.007038499566073E-14   -2.5346172749599202E-14  -4.5739410585542295E-15  4.463276390408342E-19
1.45E-5                   3.5487463211748106E-13   2.002293275430405E-15    1.5956606036911104E-15   -1.6602602187228025E-15  1.1353134435658019E-17   3.3513170203560012E-18   -2.3596954794361874E-13  -1.0041800203844131E-13  -3.782176624872491E-14   -9.846301538237161E-15   -1.6225693026835788E-18
1.4999999999999999E-5     7.352597470300169E-13    4.28202429924253E-15     2.1973860871506146E-15   -4.454670313531709E-16   6.27638944105618E-17     -3.2008073354574735E-17  -5.1361250379604E-13     -2.0053698098670698E-13  -6.063349758780766E-14   -2.568293911700019E-14   -3.9777659399308345E-18
1.55E-5                   1.4474445924410194E-12   1.1883433751278219E-14   -7.782751587259186E-17   3.382726446964046E-15    1.7164248895244503E-17   -4.056334030091294E-17   -1.0156370649129164E-12  -4.1296818283588564E-13  -1.5401223847274238E-13  -6.155276625109876E-14   -8.257960903964961E-19
1.6E-5                    2.7575896839054252E-12   2.986941469536474E-14    -2.311202714478278E-15   5.5602057997684406E-15   -1.0729480173658755E-16  1.476808951876796E-17    -1.888728546560708E-12   -8.182807175530853E-13   -3.8302306557898507E-13  -1.2681465721810487E-13  1.0425747256466403E-17
1.6499999999999998E-5     5.101956781663954E-12    6.11338849209375E-14     4.319621691357165E-15    5.507052016830771E-16    -2.3744671661038657E-17  7.791529032398923E-17    -3.420438935443926E-12   -1.5132457625705527E-12  -7.403674879320302E-13   -2.3725914674221404E-13  1.72184106755608E-17
1.7E-5                    9.134730686708791E-12    1.1089663019478869E-13   2.499367849736284E-14    -9.263392334281362E-15   4.076517349678144E-16    5.78960768252248E-17     -6.013869184455383E-12   -2.673941092434906E-12   -1.1995906007335439E-12  -4.348532462988241E-13   -3.047080043211206E-18
1.75E-5                   1.577816466462415E-11    2.0367591185714284E-13   5.124809675232419E-14    -1.0703220139366228E-14  5.302419537443987E-16    -1.2057804612405985E-17  -1.0234224707244731E-11  -4.659322404349435E-12   -1.9508040097121925E-12  -8.071401550146847E-13   -4.830172460224177E-17
1.8E-5                    2.6063662745489437E-11   3.97363734322055E-13     7.218656742769581E-14    6.951794808406908E-15    -4.899213823561218E-16   -7.196413041238475E-18   -1.699305726124518E-11   -8.099929855732749E-12   -3.5540893497809735E-12  -1.4932431095172067E-12  -6.239532593112422E-17
1.85E-5                   4.049522115826684E-11    7.751304822042157E-13    1.0679592223005067E-13   3.4519274335549205E-14   -1.47574173688127E-15    2.6680649270534632E-17   -2.7392111908610423E-11  -1.3917003805234838E-11  -6.719866221814811E-12   -2.7042693119701078E-12  2.068701826118992E-17
1.8999999999999998E-5     5.821411480045673E-11    1.4357327156965815E-12   2.189988081902069E-13    4.756872064934888E-14    1.1147378775207567E-15   -1.1586990020669284E-16  -4.1801315366057836E-11  -2.303833412147135E-11   -1.1879009769339855E-11  -4.7960814375326865E-12  1.5520694135193944E-16
1.95E-5                   7.678052851247644E-11    2.5423496650534264E-12   4.844866755243373E-13    3.791826940958889E-14    8.347951793195163E-15    -2.5271926483662817E-16  -5.873403493250979E-11   -3.549957212395005E-11   -1.9006118876663548E-11  -8.304083646139046E-12   1.3856397991827404E-16
1.9999999999999998E-5     9.286070167962291E-11    4.4307951140593446E-12   9.496359852213522E-13    3.8225777654190915E-14   1.3713431928849645E-14   4.623326025499669E-16    -7.464473485556583E-11   -4.937398281905142E-11   -2.7755004945367262E-11  -1.3702176898867562E-11  -1.6734254498591541E-16
2.05E-5                   1.0311432191274865E-10   7.617590396258326E-12    1.6702263872776661E-12   1.04135026521155E-13     9.207790622177019E-15    2.591640545611032E-15    -8.509195328739206E-11   -6.101561173494743E-11   -3.7449319330488386E-11  -2.085060767584212E-11   -5.088659404563753E-16
2.1E-5                    1.0476561737175987E-10   1.2494087800937787E-11   2.8412999433710856E-12   2.6775779891106676E-13   2.5868520466792615E-15   5.0358162581665245E-15   -8.6761034371944E-11     -6.730317838918835E-11   -4.679289945221319E-11   -2.8658639164474652E-11  -4.157209132223252E-16
2.1499999999999997E-5     9.627050091286413E-11    1.8775896759605842E-11   4.877081099788337E-12    5.210996649883899E-13    2.3727444690222078E-14   5.500857368065852E-15    -7.926360873959818E-11   -6.779803656746139E-11   -5.392214468312199E-11   -3.561510589158996E-11   -4.490019422027531E-17
2.2E-5                    7.80480409956217E-11     2.5239032613890342E-11   8.260150040599004E-12    8.702306040789974E-13    1.0046709610361543E-13   3.615723192933935E-15    -6.518806389747019E-11   -6.391985774406707E-11   -5.7209192638813144E-11  -4.089663687888028E-11   -4.532449175518443E-16
2.2499999999999998E-5     5.1904833426518714E-11   3.029680656960878E-11    1.316430280953888E-11    1.434285400898603E-12    2.2472442115646798E-13   4.279452073442536E-15    -4.757774499722958E-11   -5.5942061588639195E-11  -5.601404043758638E-11   -4.470653732208511E-11   -2.057608450299115E-15
2.3E-5                    1.8535534121491957E-11   3.317141475052134E-11    1.912514074328474E-11    2.510757693797268E-12    3.608172933077338E-13    1.7774893271702397E-14   -2.6608920973301E-11     -4.20794501946619E-11    -5.0286905669958806E-11  -4.7101686475967965E-11  -3.2348720166918697E-15
2.35E-5                   -2.472791752067373E-11   3.446194770989337E-11    2.5095353192585116E-11   4.527825561063828E-12    5.128960964447882E-13    5.557166136619097E-14    1.2710566583713614E-12   -2.1037321598028232E-11  -3.943163918084798E-11   -4.6599613552133755E-11  -3.1445583239486124E-15
2.4E-5                    -8.304972504409581E-11   3.513619118851516E-11    2.993719848408694E-11    7.85395486577903E-12     7.93818594798513E-13     1.2404122658600328E-13   4.113659233746672E-11    6.406883588958413E-12    -2.202293557540139E-11   -4.0567311587804024E-11  -7.244707465105991E-15
2.45E-5                   -1.6037510366673396E-10  3.4658228117714106E-11   3.2975832306686456E-11   1.2526889789723855E-11   1.4201712383216467E-12   2.207266424466019E-13    9.711336081827488E-11    4.030811622405006E-11    3.2529698515682774E-12   -2.725342401730341E-11   -2.5425450463598674E-14
2.4999999999999998E-5     -2.5624523935692406E-10  3.036804872017914E-11    3.408533791888581E-11    1.8065880442867594E-11   2.6307393492413213E-12   3.3957904094534084E-13   1.7134160347013586E-10   8.49537757915076E-11     3.692290754560527E-11    -6.940616092081748E-12   -5.824631741144583E-14
2.55E-5                   -3.657661080511593E-10   1.9276416030510304E-11   3.315968534782169E-11    2.3545319755098253E-11   4.596248159237094E-12    4.907157814109331E-13    2.628774303205256E-10    1.4636198353862963E-10   7.922139599447252E-11    1.939182590881017E-11    -8.861761522561101E-14
2.6E-5                    -4.822414138736297E-10   6.391255613153765E-13    2.947544119016597E-11    2.7951049864684257E-11   7.36694344088838E-12     7.320897149742335E-13    3.6611517656094434E-10   2.2524827983900133E-10   1.306061826034035E-10    5.217946168079443E-11    -1.0351110349700936E-13
2.65E-5                   -6.003556839706757E-10   -2.367395737082245E-11   2.1696485517344773E-11   3.0599796323005106E-11   1.0843095206483634E-11   1.1952647508514041E-12   4.718315131152391E-10    3.1390443834508353E-10   1.911367592205827E-10    9.327001103774202E-11    -1.3624443880104347E-13
2.7E-5                    -7.181743761711307E-10   -5.169035351169107E-11   8.658739867778974E-12    3.131354271090252E-11    1.4760847453760446E-11   2.0766594370598755E-12   5.7225298638593E-10      4.0121270468541366E-10   2.594275292892971E-10    1.436724126757194E-10    -2.7760964173056285E-13
2.7499999999999998E-5     -8.365781195336241E-10   -8.382495608030068E-11   -9.88738095834449E-12    3.021958560282566E-11    1.873407065812782E-11    3.575743848106929E-12    6.654725588879995E-10    4.803197325524353E-10    3.3233721375306784E-10   2.0184643005502405E-10   -6.219568787450606E-13
2.8E-5                    -9.554290936786963E-10   -1.2226697407310685E-10  -3.351812376039476E-11   2.7319402439600522E-11   2.234583491351963E-11    5.797396492962342E-12    7.538008626157078E-10    5.512300476827003E-10    4.053884186389012E-10    2.6443949005015343E-10   -1.1938118658908282E-12
2.8499999999999998E-5     -1.0686998966609448E-9   -1.6802360309067326E-10  -6.21417333294816E-11    2.2084982720553377E-11   2.5158603304573987E-11   8.673231561148796E-12    8.377864693595038E-10    6.171545052275762E-10    4.736754520153647E-10    3.2814424206472473E-10   -1.9442659330128895E-12
2.9E-5                    -1.1634053419113776E-9   -2.1924995481438522E-10  -9.638498245945805E-11   1.32824983139282E-11     2.6549632020215266E-11   1.1951769440411143E-11   9.126958409752414E-10    6.792460624747692E-10    5.332812857728327E-10    3.90328412424763E-10     -2.8380156112770057E-12
2.95E-5                   -1.2241183134667253E-9   -2.724731722978654E-10   -1.365169828256406E-10   -8.538918162275509E-13   2.5576288292665716E-11   1.5243541089556107E-11   9.699875678880373E-10    7.337497449486447E-10    5.820332668942647E-10    4.482753894096223E-10    -3.937576985102053E-12
2.9999999999999997E-5     -1.238236656051326E-9    -3.244567845480611E-10   -1.8099205136352085E-10  -2.2049801781879952E-11  2.1269096312886424E-11   1.8047221114719337E-11   9.996085093632963E-10    7.722570737361044E-10    6.179741443374361E-10    4.986498047896874E-10    -5.3708211172112154E-12
3.05E-5                   -1.1963558437890446E-9   -3.723633250152234E-10   -2.2654655213621207E-10  -5.117378892549406E-11   1.3365757189179345E-11   1.9726712935876163E-11   9.897248542802217E-10    7.841509356980762E-10    6.368520238549228E-10    5.377451790525302E-10    -7.1745024511491784E-12
3.1E-5                    -1.088901119462271E-9    -4.1308686077232684E-10  -2.70108829116964E-10    -8.761428253473508E-11   2.7554630046173946E-12   1.9546979197472696E-11   9.26392892244552E-10     7.598342743834602E-10    6.321792896738336E-10    5.614568795590197E-10    -9.127268248807727E-12
3.15E-5                   -9.046213313509443E-10   -4.435703068904091E-10   -3.104692369279958E-10   -1.2933583586004537E-10  -9.216831551703334E-12   1.6918392511724882E-11   7.966665622666121E-10    6.924891018497777E-10    5.979937690942314E-10    5.646294919042517E-10    -1.0712196992776225E-11
3.2E-5                    -6.329340810478139E-10   -4.613273184522171E-10   -3.477256787869881E-10   -1.7370011821438816E-10  -2.2365035879545733E-11  1.177676011232847E-11    5.933393351308983E-10    5.768149170813625E-10    5.299396014631667E-10    5.410851280357127E-10    -1.1283352003346133E-11
3.25E-5                   -2.6736129862675434E-10  -4.6334376419955825E-10  -3.8099914228457087E-10  -2.1854118769343256E-10  -3.867149789970879E-11   4.706355195713024E-12    3.1639423617741537E-10   4.0667144758497884E-10   4.2275403314573626E-10   4.85039071929314E-10     -1.039937210434246E-11
3.2999999999999996E-5     1.925214654898909E-10    -4.4439251993581545E-10  -4.0674542734741766E-10  -2.627175347776759E-10   -6.132940321060428E-11   -3.5474467828865984E-12  -3.0408804413254945E-11  1.7565479841466727E-10   2.6868834051841314E-10   3.9238982740704887E-10   -8.148660050734137E-12
3.35E-5                   7.415647396292127E-10    -3.9766453300830107E-10  -4.191654123486101E-10   -3.057071708617202E-10   -9.231561925460007E-11   -1.2944917664655554E-11  -4.4462169858805334E-10  -1.1894366739792098E-10  6.109323921875587E-11    2.6029638115654193E-10   -5.187844059635573E-12
3.4E-5                    1.3723920149285002E-9    -3.1771573505656963E-10  -4.121329216759883E-10   -3.4652699888266725E-10  -1.305999835282074E-10   -2.4565654259349877E-11  -9.275429060255317E-10   -4.736411944894091E-10   -2.0024015688921583E-10  8.605935650227555E-11    -2.3049047718570036E-12
3.45E-5                   2.0793473451040803E-9    -2.0228732427155193E-10  -3.8105523662694205E-10  -3.827697241669702E-10   -1.7252879700315427E-10  -3.992761007407863E-11   -1.4815987482076693E-9   -8.81390270782633E-10    -5.088358793134505E-10   -1.3245792116889333E-10  3.224865065222569E-13
3.5E-5                    2.8574878560637645E-9    -5.1055307888276885E-11  -3.2349008292015005E-10  -4.104310472494758E-10   -2.1378471341415164E-10  -5.96102186451276E-11    -2.103697106593045E-9    -1.3359585588436034E-9   -8.568895440572933E-10   -3.9497451140219326E-10  3.6107211411101927E-12
3.5499999999999996E-5     3.6948181230958254E-9    1.3646762607417963E-10   -2.3822095770252106E-10  -4.2456474837603683E-10  -2.510828395897187E-10   -8.24399715586732E-11    -2.7792882394284896E-9   -1.831887880029557E-9    -1.2396184507262386E-9   -6.979603691541429E-10   9.254510321186646E-12
3.6E-5                    4.564977041305144E-9     3.609443132838742E-10    -1.235281988654111E-10   -4.2023911055321757E-10  -2.8259368946053803E-10  -1.0611497172702517E-10  -3.4821896829929576E-9   -2.3596732766584514E-9   -1.6536837832064543E-9   -1.0358799479262993E-9   1.8675614469374677E-11
3.65E-5                   5.428838492451926E-9     6.213149711135157E-10    2.3687821557387497E-11   -3.932326403661503E-10   -3.0756154454363766E-10  -1.287636409171562E-10   -4.18009757534634E-9     -2.9019378805975074E-9   -2.091899392856351E-9    -1.4025104851118184E-9   3.2032370793280453E-11
3.7E-5                    6.2430222090158994E-9    9.132354551996591E-10    2.0669770390372531E-10   -3.4026299393055667E-10  -3.258615582688642E-10   -1.4997834809725456E-10  -4.840340537235972E-9    -3.4345411225113667E-9   -2.5395872760706123E-9   -1.7902625810956467E-9   4.817413107179868E-11
3.75E-5                   6.965037267249011E-9     1.2291379121225533E-9    4.2649216170934314E-10   -2.5883696470657875E-10  -3.3745891398273185E-10  -1.7035684793071296E-10  -5.431265539355881E-9    -3.930318550695875E-9    -2.974973827542162E-9    -2.1882219555823916E-9   6.560975882036956E-11
3.7999999999999995E-5     7.55040344958901E-9      1.5596161352551868E-9    6.803840981244945E-10    -1.468937491613633E-10   -3.4140655706077256E-10  -1.89981813034146E-10    -5.919797676068706E-9    -4.3611419628872885E-9   -3.3721305392147508E-9   -2.5810212549968126E-9   8.355404342755E-11
3.85E-5                   7.948196137395301E-9     1.8950990280033413E-9    9.626732377214718E-10    -2.484255676630954E-12   -3.346682234963755E-10   -2.0715500901798122E-10  -6.268591193480236E-9    -4.697407463798206E-9    -3.7038225838063357E-9   -2.949102434107535E-9    1.0199677344605036E-10
3.9E-5                    8.102406963058962E-9     2.226176946522523E-9     1.2659848944330688E-9    1.7618827233894806E-10   -3.116791843040722E-10   -2.1837512602025904E-10  -6.435268468887947E-9    -4.907284533961204E-9    -3.9427361988813205E-9   -3.2693765455835515E-9   1.2074746464497395E-10
3.95E-5                   7.957823248017028E-9     2.5411736464192383E-9    1.5816431375513926E-9    3.901945977710364E-10    -2.6526327658610743E-10  -2.1955972584061372E-10  -6.3746467386438995E-9   -4.9576820900194646E-9   -4.061455598701352E-9    -3.5158292642122562E-9   1.3852572726580188E-10
3.9999999999999996E-5     7.464828627422597E-9     2.8221065589874042E-9    1.899242033695111E-9     6.389948198207173E-10    -1.8863164589572254E-10  -2.0776832386529657E-10  -6.043668784765996E-9    -4.816613839842644E-9    -4.0328201032392486E-9   -3.660611962428179E-9    1.5315028044130165E-10
4.0499999999999995E-5     6.582242703117451E-9     3.0430411987051003E-9    2.2063933128823525E-9    9.196787175643253E-10    -7.751968432195969E-11   -1.8250029300738801E-10  -5.407086589943168E-9    -4.455358507809743E-9    -3.831470287587128E-9    -3.675742010113583E-9    1.6269682600605207E-10
4.1E-5                    5.280796389185847E-9     3.1737458069869564E-9    2.4885790459517386E-9    1.2265504258202217E-9    6.858382809632744E-11    -1.45828313403618E-10    -4.440974029851525E-9    -3.8495487900978E-9      -3.435406735696524E-9    -3.53472612527514E-9     1.6643604668411052E-10
4.15E-5                   3.5462253219247557E-9    3.1865050028101766E-9    2.7285076767783417E-9    1.5509670141457467E-9    2.467569264327407E-10    -1.0107439646306736E-10  -3.1328556488814042E-9   -2.980044651162649E-9    -2.8263383452007534E-9   -3.21383115744082E-9     1.6459185281258926E-10
4.2E-5                    1.37853436802653E-9      3.0605030414714714E-9    2.9055412327505263E-9    1.881362126476702E-9     4.5232091494971656E-10   -5.0476403462557946E-11  -1.4803703799111893E-9   -1.8350341495892708E-9   -1.9898839130309883E-9   -2.693595881529164E-9    1.571909822824045E-10
4.2499999999999996E-5     -1.2109567761207333E-9   2.780558002628806E-9     2.996557914766137E-9     2.2035940873999766E-9    6.807381784804598E-10    6.915162872146573E-12    5.086237422678857E-10    -4.1341466426290424E-10  -9.177031599436061E-10   -1.96081215847084E-9     1.4313912983505045E-10
4.2999999999999995E-5     -4.198637424578453E-9    2.332768201970758E-9     2.9783140436237935E-9    2.501675231017135E-9     9.283022546459537E-10    7.565351336559712E-11    2.813755482601896E-9     1.2720080291111036E-9    3.885138647089146E-10    -1.0100452344270831E-9   1.202850541627164E-10
4.35E-5                   -7.54200277430454E-9     1.7027266370534353E-9    2.8295276195141567E-9    2.75852238511619E-9      1.19104792571751E-9      1.6198965333135971E-10   5.399236636234402E-9     3.1927245908575014E-9    1.913575282908813E-9     1.561641657081795E-10    8.616546262545035E-11
4.4E-5                    -1.1172842582598151E-8   8.792039410839068E-10    2.5311663399245862E-9    2.9561545493227167E-9    1.4627579418073979E-9    2.7054014348964953E-10   8.211722002821705E-9     5.304415113828821E-9     3.62764056135165E-9      1.5276217453170674E-9    3.8582208890328665E-11
4.45E-5                   -1.4994817799583327E-8   -1.3962232464849383E-10  2.0658613310495665E-9    3.075190713633981E-9     1.7336992064952295E-9    4.0157053988879075E-10   1.1178865009561411E-8    7.548774155159687E-9     5.487070940709029E-9     3.0854719770077612E-9    -2.435957384835491E-11
4.4999999999999996E-5     -1.8884133591640763E-8   -1.3431310980541555E-9   1.4191129788940299E-9    3.0942994901690955E-9    1.9910629608688427E-9    5.506533178279122E-10    1.4208617263150661E-8    9.857049312444612E-9     7.436050222133996E-9     4.799280515157381E-9     -1.0432408102787536E-10
4.5499999999999995E-5     -2.2691518122108654E-8   -2.7106146805060796E-9   5.833216226279397E-10    2.990631247392185E-9     2.2206153506450275E-9    7.107652310314954E-10    1.7190499778175383E-8    1.2152957897638905E-8    9.408208725909627E-9     6.623980816677713E-9     -2.0235635780583545E-10
4.6E-5                    -2.6248131590730793E-8   -4.214940287170506E-9    -4.381570547748682E-10   2.7416993294810057E-9    2.4081200312083956E-9    8.750838928842077E-10    1.9999552122742873E-8    1.43519886680981E-8      1.132783238848584E-8     8.499120628073939E-9     -3.181016817659632E-10
4.65E-5                   -2.9377285259961235E-8   -5.821862232392088E-9    -1.6309005664920216E-9   2.3280468337807983E-9    2.539466560012141E-9     1.038356651012658E-9     2.250155915552125E-8     1.6358006018140688E-8    1.3110454114850998E-8    1.0351082890899325E-8    -4.49315372360035E-10
4.7E-5                    -3.190671853335141E-8    -7.484966975027806E-9    -2.973080060486754E-9    1.7353922467832115E-9    2.599711319416243E-9     1.1960355970235142E-9    2.4557636681846875E-8    1.806263894115985E-8     1.4663632576064841E-8    1.2096889017302603E-8    -5.921665269966545E-10
4.7499999999999996E-5     -3.367367457461347E-8    -9.142457373468905E-9    -4.437858824644461E-9    9.55478320611147E-10     2.572255270646616E-9     1.342155861012968E-9     2.602830388647385E-8     1.9351369338027474E-8    1.5889808644917857E-8    1.3647846349822676E-8    -7.420457063165168E-10
4.8E-5                    -3.452266645745495E-8    -1.0720680174235204E-8   -5.990849064994102E-9    -1.3938391766845035E-11  2.4393057330651216E-9    1.467716623632421E-9     2.6778869683119607E-8    2.011363595734073E-8     1.6692184708410318E-8    1.4912302597967394E-8    -8.940873222011745E-10
4.85E-5                   -3.430430633840334E-8    -1.2141597899053708E-8   -7.585562909948381E-9    -1.1688285077735797E-9   2.183736433049601E-9     1.560807666097731E-9     2.6686972610508867E-8    2.0251026665023946E-8    1.698157680326311E-8     1.5797724154281084E-8    -1.0429837640361257E-9