% Model:              Untitled.mph
% Version:            COMSOL 6.0.0.405
% Date:               Jul 15 2025, 16:13
% Dimension:          1
% Nodes:              401
% Expressions:        11
% Description:        Point graph
% Time (s)                Displacement field, Y component Displacement field, Y component Displacement field, Y component Displacement field, Y component Displacement field, Y component Displacement field, Y component Displacement field, Y component Displacement field, Y component Displacement field, Y component Displacement field, Y component Displacement field, Y component
0                         1.988722840388095E-34    5.7309327323255845E-33   -5.374308288824127E-34   7.63580405793563E-34     -1.211028146174879E-35   1.1151206496122411E-36   4.037997508253397E-37    8.751560970897293E-38    -7.662679805433432E-33   -4.542253092995892E-33   -1.1533160443885862E-33
5.0E-7                    -1.3093550774378995E-25  -2.1180374135728803E-25  2.009389592683677E-25    1.8371083432491357E-25   5.266656822716498E-28    -1.5553022381556974E-28  -5.45987372314764E-29    -1.2355718067554202E-29  -4.455423124696068E-25   1.607751775075156E-25    8.690685249447172E-26
1.0E-6                    3.737365911864004E-25    -5.529794696733448E-25   -4.9686716537286165E-25  -1.7024424343881653E-24  1.529878659557114E-26    3.4565541063097986E-28   3.313212109958458E-29    1.1882600928962758E-29   1.258319389027453E-23    3.1843379007050475E-24   3.600142632318679E-25
1.5E-6                    -3.124857344324162E-24   2.6295942212258159E-23   1.8966389982081773E-24   3.7451447307848114E-24   -7.470021051830089E-26   3.6789956054418514E-28   2.0135082061497276E-28   2.959640267828953E-29    -6.601448117340651E-23   -1.1532203174248887E-23  -3.89504750824045E-24
2.0E-6                    7.941125506171792E-24    -1.0342726956687618E-22  -5.0200270289741455E-24  -3.775343214499737E-24   1.810875166589834E-25    -5.274381572973091E-27   -9.863072638217828E-28   -2.1113507134648787E-28  6.010944073128072E-23    -2.653479530367041E-23   1.360100943546358E-23
2.4999999999999998E-6     4.753279971577942E-23    2.3544835242001827E-22   -4.240732094928969E-24   1.4854237084555744E-23   -6.44863207502235E-25    -2.569235027466616E-27   2.0495537026533724E-27   5.8312716137906556E-28   4.0077383767503384E-22   6.63878455684706E-23     -8.386983534872854E-24
3.0E-6                    -1.3806553159584091E-22  2.0526447304472748E-22   3.4882333947794823E-23   -1.3867030294008742E-23  1.4432468867598095E-24   4.7408842733506296E-26   8.048177116904486E-28    -5.56497659368517E-28    -9.776728306574724E-22   1.1100536520558804E-21   -5.936182792003603E-23
3.5E-6                    -3.4502770466692955E-22  -3.599265394919344E-22   -1.0739484678917354E-23  -1.0794032732913689E-22  5.433670613438041E-24    1.2866284763227771E-25   -9.755131840847374E-27   -9.695764360368695E-28   -5.30749893169975E-21    -4.645948656982514E-21   8.611176734231821E-23
4.0E-6                    2.0454375138291476E-21   7.250156483033702E-22    2.5628580360236325E-22   1.6072072597556688E-22   -2.5624750592295678E-23  -5.8904190401048185E-25  -9.871673252395261E-27   2.0145942450419243E-27   9.023328630822954E-21    -1.3143411436400952E-20  2.0531409785268651E-22
4.5E-6                    6.35976714334544E-21     -2.5166292110749626E-21  2.9134961758624435E-22   6.563302372190692E-23    -1.4221346545600514E-23  -1.2639189942382599E-24  8.036419375920208E-26    2.6998022071966995E-27   2.0178008806153157E-20   2.5346346799337336E-20   -9.356097873458218E-22
4.9999999999999996E-6     -1.6192798103361099E-21  1.4149588194295853E-20   -4.303135153409861E-21   -2.0771766604607764E-22  1.7615876542780446E-22   4.9874555651743796E-24   4.564325858337927E-26    -3.799260291397159E-27   -1.0089085970921076E-19  3.317707477065061E-20    -5.661818799686747E-23
5.5E-6                    1.2697581751179676E-21   1.0476851154270602E-19   -3.991992825690019E-21   4.83646125086688E-21     -1.585603517962737E-23   9.096286678499541E-24    -5.140596806245741E-25   -1.5536231885515886E-26  -1.9627043441780171E-19  -2.7906985269741664E-19  6.383577596444237E-21
6.0E-6                    1.6092131715912897E-19   1.0693491804856794E-19   3.332472599057007E-20    -1.9975075826975609E-22  -6.907159726119746E-22   -3.36566463632271E-23    -2.2533301899313134E-25  -6.203099805374548E-27   7.117532419568542E-20    -5.966029984019353E-19   -5.692372381009056E-21
6.5E-6                    5.761752947398524E-19    -8.474835713439535E-20   5.752095012227286E-20    -4.3216127955493155E-20  3.0051053562657027E-22   -5.278567935136252E-23   3.1509981057389888E-24   9.235123663350338E-26    -3.140461141543226E-19   -1.086688365937749E-19   -3.745341583826805E-20
7.0E-6                    1.1678233413907816E-18   9.965705851190883E-19    -9.213837668722047E-20   8.888190512448297E-21    1.2987236526015657E-21   2.0000455643243929E-22   1.4207151777611318E-24   2.350793983191805E-25    -3.199652488847334E-18   -1.5329363846340637E-18  -3.3773915450321318E-21
7.499999999999999E-6      3.1326632465706423E-18   5.415122805409503E-18    -2.4712437837864596E-19  3.215885382299137E-19    -1.281379019537351E-21   2.832327547775348E-22    -1.92775638960206E-23    -2.328089404374575E-25   -7.851697677032003E-18   -1.1483203823586967E-17  2.8937777996180725E-20
8.0E-6                    1.192307318399729E-17    1.1084515469377608E-17   3.7065583350177867E-19   2.7914201581891437E-19   6.513632179436094E-21    -9.513545546788149E-22   -2.7692526484869248E-24  -1.801230789785983E-24   -1.4739655927066794E-17  -2.9886924222144496E-17  -1.6553445538394518E-19
8.5E-6                    3.887045945867008E-17    1.9955985312690747E-17   2.1338139333435714E-18   -8.664718863509328E-19   1.8489557273169165E-20   -9.743891532546775E-22   1.4712307934814884E-22   1.6331841196506029E-24   -4.272459479285315E-17   -5.944639500773381E-17   -4.3019598368725416E-19
9.0E-6                    1.075467853264561E-16    6.842720225423313E-17    3.9617169684620124E-18   -6.501431472731919E-19   -3.8149883526355395E-20  5.4975662062659965E-21   1.2896899645797907E-22   2.2138592402783848E-23   -1.422251704825701E-16   -1.6634768665443935E-16  -1.2955933546790635E-18
9.499999999999999E-6      2.9053628302831525E-16   2.4013448702135603E-16   5.2566409022516346E-18   5.3751485193670185E-18   -8.342347488356311E-20   7.691440715144351E-21    -4.935132471778594E-22   2.778566090950635E-23    -3.809654496685891E-16   -5.270530503674441E-16   -5.051631536940759E-18
9.999999999999999E-6      8.031939474181133E-16    6.5003693448275E-16      1.2986725290170886E-17   1.342510508099794E-17    2.616484828726558E-19    -1.287755006067791E-20   2.7169332941557745E-22   -3.6626950109214895E-23  -8.829136677655757E-16   -1.4275904237626929E-15  -1.1965976020100341E-17
1.05E-5                   2.1818560400704905E-15   1.5592352520197915E-15   5.457663553755463E-17    1.3035402782693164E-17   8.426669192874131E-19    -4.14285729143825E-21    6.16578736252832E-21     8.130107617476686E-23    -2.1560832332194636E-15  -3.505358675280771E-15   -2.5110649405111135E-17
1.1E-5                    5.684142412110041E-15    3.8362087273670555E-15   1.841165876572856E-16    1.9825584338411522E-17   4.916713590030268E-19    1.3526316958434482E-19   1.2575331410682599E-20   9.152692856158462E-22    -5.6852424174455505E-15  -8.604784533927154E-15   -7.604684976899262E-17
1.15E-5                   1.4316647563418305E-14   9.690677404324448E-15    4.763500931149194E-16    9.801667206682794E-17    -1.399879476826229E-19   3.146613210191931E-19    1.501652223438357E-20    2.261419187070527E-21    -1.4376574839740615E-14  -2.1221657822815976E-14  -2.292731864139694E-16
1.2E-5                    3.523540603722926E-14    2.347269748585345E-14    1.128378274759765E-15    3.1220833824693E-16      3.991284966212154E-18    3.944283361807186E-19    6.754302311388903E-20    4.3191152901997E-21      -3.3636443716799956E-14  -5.101041591742098E-14   -5.679520105310477E-16
1.2499999999999999E-5     8.463744198593996E-14    5.3064290607880696E-14   2.8744773522505695E-15   6.795251999577055E-16    1.6679121368314633E-17   1.1847660538928576E-18   2.9739568618559633E-19   1.2557570137781982E-20   -7.589128659783462E-14   -1.1830229688862977E-13  -1.3511827009830638E-15
1.3E-5                    1.9683840104149737E-13   1.1298829626921654E-13   7.604590513386024E-15    1.334102306402429E-15    3.6213978415465666E-17   4.7541098437854615E-18   8.10832342433401E-19     3.878367429283511E-20    -1.7013309325846412E-13  -2.646765423816459E-13   -3.4353467630526147E-15
1.35E-5                   4.406309444890492E-13    2.2896563404952027E-13   1.906061768315853E-14    2.9535696714481716E-15   7.481295775824455E-17    1.3166298025292352E-17   1.9577785369525353E-18   1.0817967927371503E-19   -3.750586196290542E-13   -5.715353669054638E-13   -8.638466650738236E-15
1.4E-5                    9.477523028814303E-13    4.4210328296244464E-13   4.5005376100575116E-14   7.050232299546127E-15    1.8535388204052438E-16   3.100694176601829E-17    5.507993424902645E-18    3.054636831969577E-19    -7.957773499301609E-13   -1.1921370877923612E-12  -2.0207785720301175E-14
1.45E-5                   1.954174900587849E-12    8.130862529026428E-13    1.031232745379817E-13    1.576049201169232E-14    4.568057008674741E-16    7.753660634970921E-17    1.5945726957500803E-17   8.240612431521344E-19    -1.6070280119645901E-12  -2.3917298594849387E-12  -4.521255505283465E-14
1.4999999999999999E-5     3.8379535419414605E-12   1.4314628601707691E-12   2.296216412952188E-13    3.194868814616632E-14    1.0411390211759295E-15   2.0246015872634649E-16   4.1727096988995727E-17   2.0035967720076927E-18   -3.088494372036731E-12   -4.568016105368865E-12   -1.0051741175826896E-13
1.55E-5                   7.118665218289338E-12    2.4402978342023253E-12   4.879552098208511E-13    6.13435855634393E-14     2.3496851779197476E-15   5.03694260321827E-16     1.0287763853612546E-16   4.8038386322537575E-18   -5.68526506076779E-12    -8.227381926950176E-12   -2.2040766377467225E-13
1.6E-5                    1.2381196524730784E-11   4.088121960928379E-12    9.833981744057973E-13    1.1664070056564182E-13   5.3869085172640695E-15   1.1878915155906476E-15   2.552389017893644E-16    1.2298897793429683E-17   -1.0067335110157608E-11  -1.3894516540154132E-11  -4.635139806850555E-13
1.6499999999999998E-5     2.0080538496445153E-11   6.785076553923652E-12    1.8898676037645476E-12   2.2096272618196865E-13   1.2092214666571701E-14   2.743344948356732E-15    6.331460975949496E-16    3.1491109239672285E-17   -1.7007837686049257E-11  -2.186374759234085E-11   -9.24496879319876E-13
1.7E-5                    3.0172004216745946E-11   1.1045371392835338E-11   3.4633657532576012E-12   4.090572389521372E-13    2.5982941576631227E-14   6.2676551478314236E-15   1.5176440539427033E-15   7.515193981555715E-17    -2.6849452511107317E-11  -3.173587537025084E-11   -1.7571783829564074E-12
1.75E-5                   4.16397714758763E-11     1.7178170112464606E-11   5.9882586114894545E-12   7.260839980692198E-13    5.380249196733698E-14    1.400736892632033E-14    3.4967992747126492E-15   1.703556538179211E-16    -3.881827181966776E-11   -4.2089661741312084E-11  -3.1935088804786643E-12
1.8E-5                    5.234587032142953E-11    2.4863850513408735E-11   9.647908318234419E-12    1.2242859802135905E-12   1.0850651735622093E-13   3.032633890290273E-14    7.856042703208277E-15    3.860677522135541E-16    -5.111655367533405E-11   -5.093322363421713E-11   -5.520666164688601E-12
1.85E-5                   5.971005319669438E-11    3.311688966057405E-11    1.4383057344988037E-11   1.972480918686758E-12    2.1336694509798406E-13   6.350225911121968E-14    1.7324628851139854E-14   8.812462644362808E-16    -6.21881383371296E-11    -5.684298216539286E-11   -8.9906427332251E-12
1.8999999999999998E-5     6.194176747810065E-11    4.084361867113431E-11    1.9770269299078686E-11   3.1132466717649313E-12   4.0693293182817415E-13   1.2874109074749837E-13   3.7277671433942106E-14   1.967447518152199E-15    -7.173242157456402E-11   -5.9548206323351E-11     -1.3654298524899039E-11
1.95E-5                   5.859304286109382E-11    4.718161048162623E-11    2.4894831649140152E-11   4.953540899324516E-12    7.485430349680658E-13    2.524472667165645E-13    7.767211007942075E-14    4.230530196275582E-15    -7.972430304432297E-11   -5.922996499463692E-11   -1.9126701729350267E-11
1.9999999999999998E-5     4.98390658735221E-11     5.066314718927208E-11    2.8346128475917857E-11   7.940420241264552E-12    1.3248322996294177E-12   4.768938282878022E-13    1.5628415954143104E-13   8.84358231199428E-15     -8.451182978594306E-11   -5.573387631166687E-11   -2.441641555104137E-11
2.05E-5                   3.5769942986463715E-11   4.818760320117579E-11    2.8654468451101422E-11   1.2357465157623775E-11   2.2589080625281603E-12   8.632073320705304E-13    3.0359687361605075E-13   1.819091853354144E-14    -8.314615459752239E-11   -4.891298279029684E-11   -2.812903086386273E-11
2.1E-5                    1.6924409012454193E-11   3.6392309546487914E-11   2.5135022952667125E-11   1.7878169430115724E-11   3.715502863830404E-12    1.4900765325071411E-12   5.685473639604011E-13    3.679696329370322E-14    -7.406510848518238E-11   -3.887295933540056E-11   -2.912712631442841E-11
2.1499999999999997E-5     -5.39117649560077E-12    1.5461169880608797E-11   1.836507656091135E-11    2.3456042030867426E-11   5.87031577740379E-12     2.4457374333312656E-12   1.0228561853219965E-12   7.260242075937589E-14    -5.789374155732119E-11   -2.456578474336297E-11   -2.704450665366934E-11
2.2E-5                    -3.1085647941764696E-11  -9.328929134302118E-12   9.61388107882208E-12     2.782874858022769E-11    8.801201392695202E-12    3.80895258142498E-12     1.7606955727901176E-12   1.38987879316071E-13     -3.428062542015297E-11   -2.527017940217507E-12   -2.1975425350598215E-11
2.2499999999999998E-5     -6.363639320346488E-11   -3.225662043477646E-11   -2.1588169929074685E-13  3.0179501660393273E-11   1.2317984260749164E-11   5.611816328849196E-12    2.889694490130307E-12    2.579788956608629E-13    6.083863702071601E-13    3.1420271100055555E-11   -1.3806438901200597E-11
2.3E-5                    -1.0840647914276675E-10  -5.399490416602874E-11   -1.0965259378315159E-11  3.01622395128489E-11     1.585759152616294E-11    7.78413960348516E-12     4.508003259949944E-12    4.639817423460273E-13    5.1237182373572004E-11   7.908529955368517E-11    -2.3938819204644748E-12
2.35E-5                   -1.6745634106008134E-10  -8.191493423762184E-11   -2.2918472708528992E-11  2.722478722884039E-11    1.8594274097812203E-11   1.0103657183782845E-11   6.66273791200695E-12     8.057546990003513E-13    1.1811686153946198E-10   1.3968290085320102E-10   1.1543186822771212E-11
2.4E-5                    -2.3721804070858007E-10  -1.2220593806413486E-10  -3.6824207615590475E-11  2.017687571145708E-11    1.974778816722371E-11    1.21976882959378E-11     9.293172760826775E-12    1.3437925476936184E-12   1.9854067955244863E-10   2.1219660227246649E-10   2.6509147454629883E-11
2.45E-5                   -3.1204695649873495E-10  -1.7279730293213527E-10  -5.413595167775284E-11   7.819807101269387E-12    1.885124603452291E-11    1.3618913548691467E-11   1.2177733366476679E-11   2.1411797230364104E-12   2.9128494679837307E-10   2.9590813715503295E-10   4.182624125411198E-11
2.4999999999999998E-5     -3.884437900363767E-10   -2.2533912604208046E-10  -7.622433205607862E-11   -9.880715914331045E-12   1.5753532778237748E-11   1.3948714213185847E-11   1.491432676482822E-11    3.2467280338838627E-12   3.972041211068125E-10    3.8841157009204403E-10   5.874595161668213E-11
2.55E-5                   -4.64666439511429E-10    -2.7320987161728313E-10  -1.0277412680068404E-10  -3.147150712118772E-11   1.0430375958456193E-11   1.2844552735533533E-11   1.6953079079136877E-11   4.670368835923074E-12    5.147026150020688E-10    4.853588617656055E-10    7.932137398659504E-11
2.6E-5                    -5.380968433743171E-10   -3.162278538537953E-10   -1.3148449793711335E-10  -5.506553827144114E-11   2.899198061118799E-12    1.0023582202991082E-11   1.767238788580567E-11    6.356174185318233E-12    6.381479413222729E-10    5.831167844037772E-10    1.0422032682263639E-10
2.65E-5                   -6.050766158303466E-10   -3.5842660825140757E-10  -1.599037876315048E-10   -7.964591402108125E-11   -6.668886394465055E-12   5.292487702382673E-12    1.6468993967663193E-11   8.16801020008145E-12     7.621813340091011E-10    6.798604256958646E-10    1.3197072221306066E-10
2.7E-5                    -6.62267239284392E-10    -4.029279934978992E-10   -1.873507743775559E-10   -1.0515963162270644E-10  -1.7926559572733708E-11  -1.3111550508488634E-12  1.284137378626521E-11    9.905957917196381E-12    8.843534384369973E-10    7.727369637434846E-10    1.6016181457369728E-10
2.7499999999999998E-5     -7.05942810148432E-10    -4.4825749438746776E-10  -2.146897749399111E-10   -1.3143259608869215E-10  -3.065493840537503E-11   -9.441210711286044E-12   6.4704224351012384E-12   1.1354931643279282E-11   1.0013140040224914E-9    8.551574247666267E-10    1.8694666131900395E-10
2.8E-5                    -7.300211413502502E-10   -4.871116727720871E-10   -2.4214897694730767E-10  -1.5738711773069883E-10  -4.510952736996897E-11   -1.8699200976012058E-11  -2.6973193802936495E-12  1.2334032103015507E-11   1.1047747307559828E-9    9.181125927496875E-10    2.1139924482088038E-10
2.8499999999999998E-5     -7.263499569215472E-10   -5.079185414091625E-10   -2.672023807144249E-10   -1.8157756337902874E-10  -6.187579272365874E-11   -2.913049368713817E-11   -1.4399802625201003E-11  1.2695990136421561E-11   1.183275465141331E-9     9.53329241159083E-10     2.3286863622680523E-10
2.9E-5                    -6.872885138743067E-10   -4.994736053995998E-10   -2.8471531421458853E-10  -2.032911952482275E-10   -8.121521565448137E-11   -4.138616903212126E-11   -2.8117303554231844E-11  1.2255981237841484E-11   1.225878013067214E-9     9.540932400817094E-10    2.5030001339795404E-10
2.95E-5                   -6.072877966305678E-10   -4.560342049312883E-10   -2.9011341599505584E-10  -2.2271991221506188E-10  -1.02521283958448E-10    -5.6141728978605034E-11  -4.327018195410907E-11   1.0701964059931648E-11   1.2221757278873222E-9    9.13729591172015E-10     2.620688065266801E-10
2.9999999999999997E-5     -4.818173843097587E-10   -3.7832978925557945E-10  -2.8295185451598755E-10  -2.399108751713144E-10   -1.2438717102138683E-10  -7.322400782603086E-11   -5.946631560922659E-11   7.581527598376066E-12    1.1607028802855565E-9    8.245378652208768E-10    2.662066922961122E-10
3.05E-5                   -3.0552150574151844E-10  -2.69530396077533E-10    -2.661665000367456E-10   -2.5364810730913003E-10  -1.4510958108757422E-10  -9.140150675317034E-11   -7.662791506744173E-11   2.3977576578857874E-12   1.0299605418846567E-9    6.780342923424568E-10    2.6077080771836963E-10
3.1E-5                    -7.241189325721745E-11   -1.305484723308827E-10   -2.4041952579752064E-10  -2.6126800970790913E-10  -1.631395558814907E-10   -1.0910891169417094E-10  -9.489236930828631E-11   -5.276793213045932E-12   8.204279998092818E-10    4.653630600018676E-10    2.441304464450253E-10
3.15E-5                   2.2150542109972992E-10   4.078698435561936E-11    -1.999661377228091E-10   -2.5923107788988686E-10  -1.772730110724683E-10   -1.2523643563802283E-10  -1.1431642569863296E-10  -1.578198254121424E-11   5.24161360008539E-10     1.7795655631585675E-10   2.147226656771642E-10
3.2E-5                    5.757097534889734E-10    2.469101618630737E-10    -1.3599106730110927E-10  -2.4384013596582693E-10  -1.8665262070186894E-10  -1.390341573983378E-10   -1.3447657052294468E-10  -2.941622303920432E-11   1.334863710587845E-10    -1.9027313052377137E-10  1.7023085454493798E-10
3.25E-5                   9.849903350559566E-10    4.876927712378261E-10    -4.4161617185035084E-11  -2.1199213543072402E-10  -1.906145538962274E-10   -1.4937152906133588E-10  -1.5408653107300314E-10  -4.637826231588387E-11   -3.578831819904819E-10   -6.399536086079126E-10   1.0743072420933761E-10
3.2999999999999996E-5     1.4406730955623982E-9    7.600828638545387E-10    7.24658134679812E-11     -1.619621679084744E-10   -1.883457004814415E-10   -1.5451169818880868E-10  -1.7086566902569293E-10  -6.652491370099126E-11   -9.519748236152786E-10   -1.1655437730769534E-9   2.3866045514804416E-11
3.35E-5                   1.931222098535609E-9     1.059540944380555E-9     2.0807515581159854E-10   -9.367490087816029E-11   -1.7841545740573082E-10  -1.5291582646617039E-10  -1.819447934201874E-10   -8.910517066702156E-11   -1.64480932218426E-9     -1.7578198814555363E-9   -8.011622631111065E-11
3.4E-5                    2.4424419774698756E-9    1.380964469206983E-9     3.599972421848008E-10    -7.951376365409857E-12   -1.5843357200273095E-10  -1.441393422985851E-10   -1.8477498019906055E-10  -1.1271982268630207E-10  -2.4261430423204794E-9   -2.405961551176807E-9    -2.0186202252320893E-10
3.45E-5                   2.958154785774786E-9     1.7174430703819867E-9    5.292053874216456E-10    9.474745563576074E-11    -1.2528380864611647E-10  -1.285377647581259E-10   -1.779455489769878E-10   -1.3557910372074386E-10  -3.279221822672225E-9    -3.0959238602957936E-9   -3.3911418315949973E-10
3.5E-5                    3.460043365582092E-9     2.0573463066360405E-9    7.159078617743613E-10    2.148639940316622E-10    -7.627639711345125E-11   -1.0584128303673435E-10  -1.6120233232553822E-10  -1.5589984410649773E-10  -4.180352373449309E-9    -3.8072458649216695E-9   -4.909687151624028E-10
3.5499999999999996E-5     3.925520471584625E-9     2.3824573041778775E-9    9.155445599945924E-10    3.5304763047667304E-10   -1.0723027731919288E-11  -7.406887682864168E-11   -1.3461675610688653E-10  -1.7220659283579845E-10  -5.099020824183354E-9    -4.512609143317002E-9    -6.553807114148139E-10
3.6E-5                    4.325777017070224E-9     2.669780964729254E-9     1.1185494882665709E-9    5.088897579919404E-10    6.951478316906005E-11    -2.995336143129435E-11   -9.76323369305952E-11    -1.833646304454664E-10   -5.998363839672187E-9    -5.179906951664113E-9    -8.267928994406636E-10
3.65E-5                   4.626852210087469E-9     2.896292954066738E-9     1.313027255245574E-9     6.800002372187556E-10    1.6143506529374993E-10   2.956253282416874E-11    -4.874456351741521E-11   -1.8831577397552931E-10  -6.8355014639508525E-9   -5.7731642022942574E-9   -9.97369373156162E-10
3.7E-5                    4.793347463957016E-9     3.0424497528191493E-9    1.4878281614336373E-9    8.616053627817821E-10    2.631200322059693E-10    1.0607407727947008E-10   1.407825702083981E-11    -1.8570724153161174E-10  -7.562125563567768E-9    -6.251744618697671E-9    -1.1599470346538343E-9
3.75E-5                   4.792203483569112E-9     3.091287713995804E-9     1.634270956655644E-9     1.0463392644766369E-9    3.74462421629827E-10     1.9926659809257864E-10   9.265904570392621E-11    -1.737623439976992E-10   -8.125731492564895E-9    -6.570801044262224E-9    -1.3086499639730164E-9
3.7999999999999995E-5     4.594732473415843E-9     3.0249081394747515E-9    1.7458243309923745E-9    1.2242070680073978E-9    4.956182987662686E-10    3.0682559515916437E-10   1.8799083056776666E-10   -1.5058907498586267E-10  -8.47103903950039E-9     -6.68401511057429E-9     -1.4369354195575527E-9
3.85E-5                   4.176621101908939E-9     2.8232269034983323E-9    1.8159148612975737E-9    1.3831601382651543E-9    6.248468275321631E-10    4.244334729877781E-10    2.99879061402729E-10     -1.1471142604891744E-10  -8.541347185616555E-9    -6.546535339673971E-9    -1.5361824197542314E-9
3.9E-5                    3.5170304854353706E-9    2.4671909434599514E-9    1.8351233962635288E-9    1.5105257369939123E-9    7.576899790939638E-10    5.462943661145754E-10    4.2673012842232296E-10   -6.539132877023221E-11   -8.280391396740329E-9    -6.116918524231492E-9    -1.5964287162318477E-9
3.95E-5                   2.598886712087315E-9     1.943500257444642E-9     1.789902913565841E-9     1.594799647134868E-9     8.876308044711415E-10    6.664166956854809E-10    5.65259589559647E-10     -2.5538055735382392E-12  -7.635045735275554E-9    -5.359146562646142E-9    -1.607913838210897E-9
3.9999999999999996E-5     1.41138831392056E-9      1.2465884045673165E-9    1.6645509598241827E-9    1.626850493376433E-9     1.0070685981151169E-9    7.798972757551418E-10    7.101221312786772E-10    7.350610458663225E-11    -6.558598113301635E-9    -4.245280153817035E-9    -1.5618317970767846E-9
4.0499999999999995E-5     -4.6463653833407753E-11  3.77557793317853E-10     1.4461053161568282E-9    1.5998752597050163E-9    1.1078423972718637E-9    8.831092505267007E-10    8.539557551315666E-10    1.6242552613210123E-10   -5.014671264457798E-9    -2.757751553151567E-9    -1.450398089608293E-9
4.1E-5                    -1.7629084643688754E-9   -6.565325720501469E-10   1.1290642913266723E-9    1.5082354585539948E-9    1.181372330196112E-9     9.724724129279622E-10    9.883983949438497E-10    2.640598577715558E-10    -2.9819757137045075E-9   -8.908440389476213E-10   -1.267186485292693E-9
4.15E-5                   -3.7116178911993064E-9   -1.8411553707594485E-9   7.158943990988135E-10    1.346075791918645E-9     1.2187437141333223E-9    1.0425434677108556E-9    1.1057471923501729E-9    3.786597820602382E-10    -4.586882753974452E-10   1.3476955601145522E-9    -1.0078988226285016E-9
4.2E-5                    -5.851422548841084E-9    -3.1528563404253715E-9   2.1245817109941203E-10   1.1069503802780491E-9    1.2110624060760946E-9    1.0847697904815406E-9    1.1998628343686124E-9    5.065537482455032E-10    2.535562091280842E-9     3.934315232681986E-9     -6.708077227520047E-10
4.2499999999999996E-5     -8.12758361977251E-9     -4.560302076660364E-9    -3.7713236973232035E-10  7.851666795916738E-10    1.1503297874063162E-9    1.0881359063281892E-9    1.2652007401985078E-9    6.470318611741193E-10    5.96004879302907E-9      6.827268034803937E-9     -2.566165408082162E-10
4.2999999999999995E-5     -1.0472984145012304E-8   -6.025969580061931E-9    -1.0502764636261333E-9   3.7824341145085734E-10   1.0305185666261149E-9    1.0418102371491032E-9    1.2946635900666993E-9    7.968179415872459E-10    9.752928850544284E-9     9.964868050965954E-9     2.313141524655481E-10
4.35E-5                   -1.2807547343140011E-8   -7.50470287932474E-9     -1.7997689780268248E-9   -1.111774333615615E-10   8.479185927590384E-10    9.381461238218565E-10    1.2784093944213173E-9    9.491393045008379E-10    1.3829002186317567E-8    1.3264384891561007E-8    7.857755783227651E-10
4.4E-5                    -1.5037058203737797E-8   -8.939761248086394E-9    -2.6080239604211463E-9   -6.751390709757719E-10   6.003295832990425E-10    7.737079678998696E-10    1.2049705678566577E-9    1.0941534295177504E-9    1.807700362111959E-8     1.6621912138157718E-8    1.3948179770535678E-9
4.45E-5                   -1.7054510993422567E-8   -1.0261935419880244E-8   -3.44761284076612E-9     -1.3013907545779025E-9   2.861161980619833E-10    5.476546252174691E-10    1.0637749122386846E-9    1.2205165190121723E-9    2.2359453609730815E-8    1.9914147899149173E-8    2.042739695063799E-9
4.4999999999999996E-5     -1.8745359621239383E-8   -1.1395253687509502E-8   -4.287117690797782E-9    -1.9742111425871336E-9   -9.533804783102972E-11   2.594134444951489E-10    8.470348016440413E-10    1.3171188472947543E-9    2.6515398491429392E-8    2.300210547515153E-8     2.7121553388181547E-9
4.5499999999999995E-5     -1.9995015071138753E-8   -1.226558764365431E-8    -5.0961167083251375E-9   -2.6745049926012207E-9   -5.416000860661523E-10   -9.177985498596556E-11   5.501724030418789E-10    1.3740604341034523E-9    3.036402039421655E-8     2.5735387595494383E-8    3.3845901126643157E-9
4.6E-5                    -2.0695546470270786E-8   -1.2805365788140257E-8   -5.845357885348198E-9    -3.379824482988459E-9    -1.0451372108528608E-9   -5.049795871664098E-10   1.716934129005368E-10    1.3825594421528443E-9    3.3708467815304595E-8    2.7956112897309526E-8    4.038905681468351E-9
4.65E-5                   -2.0749315702895823E-8   -1.2952683728391367E-8   -6.503978334114161E-9    -4.064718949656728E-9    -1.5928671445395744E-9   -9.75153989076437E-10    -2.865199280694873E-10   1.3341775131805164E-9    3.6341658406265985E-8    2.9503257331999946E-8    4.6500110894878005E-9
4.7E-5                    -2.0069986091796957E-8   -1.2649767105504287E-8   -7.037858437618528E-9    -4.700865077533478E-9    -2.167356094519881E-9    -1.4923394378137296E-9   -8.187727123023642E-10   1.2202256190302858E-9    3.80551489118424E-8      3.021862926901154E-8     5.190294605143534E-9
4.7499999999999996E-5     -1.8584331815195244E-8   -1.1845824036402218E-8   -7.410631947597405E-9    -5.256736452470706E-9    -2.7483582171528817E-9   -2.042423004996265E-9    -1.415655535088626E-9    1.0322094547584242E-9    3.864944769766487E-8     2.995461839809308E-8     5.632945802041052E-9
4.8E-5                    -1.6238024393672033E-8   -1.0503671190349104E-8   -7.586123432536478E-9    -5.6980096694360186E-9   -3.313515837767255E-9    -2.608084408782721E-9    -2.06436917523934E-9     7.634323504121959E-10    3.794349579813634E-8     2.8582785024704404E-8    5.954197105758088E-9
4.85E-5                   -1.300451577403074E-8    -8.605775527330649E-9    -7.531125920951655E-9    -5.990170427107105E-9    -3.838171130643382E-9    -3.1687806959966416E-9   -2.748365796163295E-9    4.107671979441212E-10    3.5783216187100915E-8    2.600207810483916E-8     6.133177513317563E-9