% Model:              Untitled.mph
% Version:            COMSOL 6.0.0.405
% Date:               Jul 15 2025, 16:13
% Dimension:          1
% Nodes:              401
% Expressions:        11
% Description:        Point graph
% Time (s)                Displacement field, Y component Displacement field, Y component Displacement field, Y component Displacement field, Y component Displacement field, Y component Displacement field, Y component Displacement field, Y component Displacement field, Y component Displacement field, Y component Displacement field, Y component Displacement field, Y component
0                         8.157228949027549E-36    1.0452985948182565E-33   4.0738640893287655E-35   1.2741383153612856E-32   6.869995027073255E-32    6.800726744121817E-32    7.527437555345519E-32    1.3642138805700034E-32   -8.16608762923092E-36    -2.7466706930067485E-35  -1.0151661632376195E-33
5.0E-7                    -2.2363138595787134E-27  -2.4246083134402815E-26  -3.447016816667104E-26   -2.3681142946058347E-24  -1.0896111977302623E-23  -1.0398057150440644E-23  -3.617926966969315E-24   1.0319295933701538E-23   -6.300308375650419E-28   1.3356994585439682E-27   8.898032339715042E-26
1.0E-6                    4.174647956136898E-27    -1.5487655012407897E-24  2.2405576367592964E-25   2.3738919879798592E-24   2.018233734682009E-23    1.8686484831058223E-23   -4.2042033661170624E-23  -1.836239546859609E-22   1.2329794043462118E-26   2.2525082236018936E-26   3.581004303522199E-25
1.5E-6                    2.1268832255555925E-26   1.1021386555829166E-23   7.420414507961201E-26    2.8405743605444157E-23   -9.376233817402607E-24   -1.761975045972022E-23   2.298910849678928E-22    1.0074914735189044E-21   -3.9956250397776597E-26  -1.220089723999491E-25   3.1945100748116865E-24
2.0E-6                    -1.1094257572047263E-25  -3.6496984529378155E-23  -7.560974652756738E-24   -1.579537230115143E-22   -1.8372165017536217E-22  -7.018544623003533E-23   -4.1578728341666977E-22  -1.7014250899692655E-21  5.052306910640326E-26    3.023500080964625E-25    -1.1812306762770007E-23
2.4999999999999998E-6     2.209723263938912E-25    2.823648109649663E-23    2.8163354883844005E-23   5.206965670916496E-22    1.0274936690633386E-21   4.613328587592055E-22    2.7400088478487638E-22   -4.258831883614382E-21   -9.12930738298011E-27    -2.890455963625653E-25   -1.44861240755979E-22
3.0E-6                    -2.40962296811729E-25    2.004255707515254E-22    2.1871709370631453E-23   -1.4261006326595057E-22  -1.883636871454181E-21   -1.406840849491273E-21   -2.492229380257493E-21   1.7851092022776663E-20   -1.6346310014161873E-25  -6.049375892688452E-25   2.5723972905558516E-22
3.5E-6                    -1.194710191611512E-24   -5.077068423983716E-22   -2.2624279718931105E-22  -4.793003828060935E-21   1.2799630205362867E-21   4.0858946755731476E-21   4.641812885524351E-21    7.580870283686272E-21    8.472170585150972E-25    1.8134943446621267E-24   1.4600329659788844E-21
4.0E-6                    6.181043239491824E-24    -7.191188613535531E-22   -5.217416313216191E-25   4.195250087181444E-21    1.2720204314461446E-21   -5.1771339912519036E-21  2.8975829125586706E-20   -9.735323188183681E-20   2.491527425326358E-25    3.2911147491605684E-24   -1.4132532794900109E-21
4.5E-6                    2.6985177385561127E-24   3.6233605831551786E-21   9.797776869055078E-22    3.9371271186884896E-20   -6.201515480200855E-21   -1.1156892860568583E-20  -3.0699386994039237E-20  -6.337519029194756E-22   -1.0156817947553855E-23  -1.466952343155968E-23   -1.1809660872625192E-20
4.9999999999999996E-6     -4.7009960555540957E-23  2.537355060146479E-21    3.461790062549136E-22    -1.8345380498547486E-20  6.148113342541601E-20    6.915211397682246E-20    -2.0699645299029717E-19  4.430771116450627E-19    4.907688162994166E-24    -2.4452261597443806E-23  -1.5339921663988676E-21
5.5E-6                    -6.129498715271489E-24   -1.8781750641105736E-20  -2.9069278420456684E-22  -2.5424916807010147E-19  6.081070296916597E-20    9.044835717526753E-21    8.097662429389827E-20    -1.7568804621603058E-20  7.996327557429026E-23    1.1791286541545987E-22   6.140823634846042E-20
6.0E-6                    2.775096774437495E-22    -7.9134048927716E-21     -1.243448241133581E-21   2.9482146145316125E-20   -1.833185420463227E-19   -1.8172992273625126E-19  1.3266314603952875E-18   -1.7521979898770646E-18  -5.1873510979592103E-23  1.2381347099148388E-22   4.7935534312695145E-20
6.5E-6                    1.178216448673031E-22    8.755588809489047E-20    -1.2936013564935186E-20  1.4613244517507896E-18   1.9506373006573048E-19   3.372456110174973E-19    6.231318294100323E-19    5.768529397328015E-20    -4.826672337315801E-22   -6.572871172369079E-22   -2.935236655226461E-19
7.0E-6                    -1.3161634807336035E-21  4.768213689723465E-20    3.7936628498728014E-20   9.578262244289277E-19    2.6796316659124922E-18   1.592013383343731E-18    -5.1931163296318975E-18  6.558333655282907E-18    2.120737682593354E-22    -6.299855247027074E-22   -6.967439368048071E-19
7.499999999999999E-6      -1.1564169707608848E-21  -3.1046047944452816E-19  2.455053842889426E-19    -5.2959368709517885E-18  6.300856331319236E-18    2.4083474198548918E-18   -3.967247571792759E-18   8.336398369422186E-19    2.388118607556984E-21    2.7337338798722298E-21   1.4723201497786726E-19
8.0E-6                    5.564881270657219E-21    -6.714881889383482E-20   1.884827671847111E-19    -5.263982303670614E-18   9.007951263374956E-18    4.3707072013542414E-18   2.3871847277438994E-17   -2.1088587748215493E-17  3.6238479553446194E-23   3.2371347205067243E-21   2.9221802088673177E-18
8.5E-6                    9.877255027028073E-21    1.7293814834841955E-18   -4.610436088759893E-19   2.6131341957640382E-17   2.9842222565082265E-17   2.0318397406923034E-17   4.733829058235764E-17    -2.0729675551579516E-18  -9.489401314695243E-21   -9.158343426474478E-21   1.698536221641202E-18
9.0E-6                    -1.2034129061114822E-20  1.7231848390461145E-18   1.0518917132871988E-18   6.442358067519389E-17    1.3415492125923524E-16   7.902510159253968E-17    -7.971261227061765E-18   8.089583159720808E-17    -5.917945619812017E-21   -1.6492442042578885E-20  -1.9473174726471218E-17
9.499999999999999E-6      -3.735907562849702E-20   -4.1408456731297896E-18  9.607803507655605E-18    1.0802911560593122E-17   4.0003225105085626E-16   2.2182833408882446E-16   -4.1356451175085627E-17  5.399134567504086E-17    2.778639797172025E-20    1.966724097674917E-20    -6.291247578492517E-17
9.999999999999999E-6      4.8537228918829245E-20   -4.931954012202133E-19   2.136737869104021E-17    -8.762012532245212E-17   9.41301396795216E-16     5.928334374448809E-16    3.6115392980703993E-16   -1.9574959073536467E-16  4.0085249511965883E-20   6.25947613198492E-20     -7.802419238732673E-17
1.05E-5                   2.7898855606542156E-19   4.1734265437615785E-17   2.5661493277573597E-17   2.53509354029982E-16     2.3455107945033513E-15   1.7211844631368923E-15   1.3792015175898687E-15   -1.4081594736344254E-16  -4.804604091431771E-20   -2.6530086469323077E-20  -3.969367326379581E-17
1.1E-5                    3.5793272743708054E-19   8.526706080389671E-17    6.388720642566755E-17    1.5523362595472692E-15   6.4269900709698184E-15   4.845544117844002E-15    2.46283648094496E-15     8.984872216931095E-16    -1.6015668149664114E-19  -2.513952287296821E-19   -2.3402248996134636E-16
1.15E-5                   1.5086410700120853E-19   2.6469326574724484E-17   3.0424732816694724E-16   3.2677648742176815E-15   1.6673126887494417E-14   1.2708916668328967E-14   4.34683237660283E-15     1.9201813004167313E-15   -4.0124268602292236E-20  -2.572833585312267E-19   -1.391962271255917E-15
1.2E-5                    1.1947088925814884E-18   2.7461336243197418E-17   9.399764146527347E-16    4.323811833755425E-15    3.941466836356511E-14    3.2645928921270375E-14   1.2806754859145684E-14   7.1504238316113855E-16   3.600907675157698E-19    1.811360236672556E-19    -4.1674258173267775E-15
1.2499999999999999E-5     6.90932938051506E-18     7.40021285049638E-16     1.9859848150628437E-15   7.251195581307622E-15    8.87532826647039E-14     8.285219885068039E-14    3.7658163364445626E-14   -5.139906167256811E-16   4.742432859009093E-19    1.1795388770116442E-19   -8.782450095441702E-15
1.3E-5                    1.9038228326784006E-17   2.4039822694051074E-15   3.9410054738907225E-15   2.1944804244454056E-14   1.94949998250353E-13     2.0106109712914761E-13   8.850058135014565E-14    7.956458125970783E-15    -4.418606518265006E-19   -2.3210674531761637E-18  -1.7318731189334374E-14
1.35E-5                   3.7863972964280665E-17   3.816846750357447E-15    9.96558928246404E-15     6.12398326711373E-14     4.1155380771785333E-13   4.617884467077735E-13    1.8820082381281184E-13   3.2184775383055754E-14   -1.97458959596949E-18    -7.800208665486667E-18   -3.926733127527378E-14
1.4E-5                    8.500508884817867E-17    4.807557612674145E-15    2.7048451844826746E-14   1.3138404161327727E-13   8.23590831875927E-13     1.0192612057322406E-12   4.1373272637806347E-13   6.118474430533106E-14    -2.2153185131999905E-18  -1.626292974334574E-17   -9.548356626362457E-14
1.45E-5                   2.4533689590429347E-16   1.1526649945470813E-14   6.33451403817029E-14     2.3789259165035877E-13   1.5648401313559277E-12   2.180278939015468E-12    9.270613274848694E-13    8.946750275899894E-14    -4.10658352480925E-19    -3.431016090851064E-17   -2.1675216440109836E-13
1.4999999999999999E-5     6.768219374324568E-16    3.4921974891856714E-14   1.294532123090906E-13    4.1953522946673564E-13   2.821346837270426E-12    4.473116308660138E-12    1.9728966078458552E-12   1.7503252437832864E-13   -4.317918464169046E-19   -8.461149123954128E-17   -4.4936280582288594E-13
1.55E-5                   1.598814719326001E-15    7.843872702383112E-14    2.594704988705255E-13    7.818545650678242E-13    4.7688246252229915E-12   8.678478229054475E-12    3.923373753579551E-12    4.482038819243704E-13    -1.0779623589046378E-17  -2.1722710954998615E-16  -8.909623639406455E-13
1.6E-5                    3.518034036797999E-15    1.347118199550149E-13    5.450458333407945E-13    1.4803008555920781E-12   7.498080903702918E-12    1.5846224364971406E-11   7.435129048344398E-12    1.0158212786599631E-12   -4.3337119402319436E-17  -5.464053171597265E-16   -1.7476274025594043E-12
1.6499999999999998E-5     8.000154953061367E-15    2.1419900748073968E-13   1.1418830443079383E-12   2.6663314863084024E-12   1.1178561462036868E-11   2.727070000156629E-11    1.353898286431284E-11    1.9052543714279355E-12   -1.154865073465454E-16   -1.3264314110741133E-15  -3.3514647163120964E-12
1.7E-5                    1.8653427871343845E-14   3.8211292413279246E-13   2.2399023056183976E-12   4.522817370356682E-12    1.654887944682034E-11    4.4127839853626805E-11   2.338085726428816E-11    3.2748872858891825E-12   -2.529513593532536E-16   -3.053618353243018E-15   -6.101753145294038E-12
1.75E-5                   4.158077599970522E-14    7.363309052701378E-13    4.081808575886082E-12    7.51090605085003E-12     2.5110370839174746E-11   6.644773516232851E-11    3.770506393836842E-11    5.771314939797575E-12    -5.160718520591702E-16   -6.7080345153927275E-15  -1.0380440027921357E-11
1.8E-5                    8.649915475185848E-14    1.3120966694055454E-12   7.095643117085724E-12    1.267632606785722E-11    3.8140107325511534E-11   9.194511202580965E-11    5.650827979420641E-11    1.0463491674984038E-11   -1.127008338818005E-15   -1.4483848298860172E-14  -1.6463595965132694E-11
1.85E-5                   1.7273030187244535E-13   2.039223781760641E-12    1.1961015828337083E-11   2.147081872702397E-11    5.5001313773978836E-11   1.1625660268179737E-10   7.894000172541638E-11    1.8049998935060882E-11   -2.705788693073534E-15   -3.1181405177437296E-14  -2.430662113807574E-11
1.8999999999999998E-5     3.4138339979178404E-13   2.9206371367924107E-12   1.9246918416615047E-11   3.4617924092215875E-11   7.2881494893079E-11      1.3528769114098303E-10   1.0304926762198057E-10   2.8085303965571887E-11   -6.42253661808957E-15    -6.579271043700205E-14   -3.318515583661485E-11
1.95E-5                   6.643755522919488E-13    4.3645265180881885E-12   2.8635353198418877E-11   5.054675519792896E-11    8.891270644311878E-11    1.4747285897601599E-10   1.2542998909986431E-10   3.942522375414443E-11    -1.4051057463033422E-14  -1.331586939974799E-13   -4.157199406194822E-11
1.9999999999999998E-5     1.2380055466337777E-12   7.246843744984965E-12    3.851580822562028E-11    6.509382884709672E-11    1.02081249014266E-10     1.5261502108372011E-10   1.4163891943404216E-10   5.1707460672778074E-11   -2.873412782641741E-14   -2.578377006025166E-13   -4.760833237087105E-11
2.05E-5                   2.168968054760642E-12    1.2342420242590375E-11   4.6761458168982314E-11   7.369542917088636E-11    1.1182250960510264E-10   1.479293944292278E-10    1.4776494971464434E-10   6.578819560810369E-11    -5.749571707672084E-14   -4.829219736000593E-13   -4.977932410723465E-11
2.1E-5                    3.578532969646151E-12    1.947102674128187E-11    5.2116654588405776E-11   7.461381187712696E-11    1.1497546278906204E-10   1.2701541987583612E-10   1.4186514901070388E-10   8.174510737184144E-11    -1.1479837222674191E-13  -8.801307041291658E-13   -4.705840067975041E-11
2.1499999999999997E-5     5.611567506823041E-12    2.7309041940154875E-11   5.438552150425839E-11    6.963974764605682E-11    1.0616402880131912E-10   8.525444552268279E-11    1.235753904494846E-10    9.65028300545498E-11     -2.2484883087744468E-13  -1.548879396357931E-12   -3.8691868063367014E-11
2.2E-5                    8.358899799977817E-12    3.4290797655363696E-11   5.282351962247321E-11    6.075492770541412E-11    8.2251417882666E-11      2.5733117858174402E-11   9.221354617564881E-11    1.0465639171833135E-10   -4.227033913340126E-13   -2.5969313639453324E-12  -2.451189447191001E-11
2.2499999999999998E-5     1.1628766610306527E-11   3.9685431848646576E-11   4.490137935959695E-11    4.6242954981884854E-11   4.4940999426841523E-11   -4.369162015160994E-11   4.573850238717524E-11    1.0230901075381298E-10   -7.577155176254617E-13   -4.1128793960635555E-12  -5.585071285788708E-12
2.3E-5                    1.472604030370966E-11    4.3489422870815513E-11   2.7823585485315146E-11   2.1427351400735383E-11   -2.484059314408831E-12   -1.208540739959162E-10   -1.8032777503772902E-11  8.924701401140885E-11    -1.2987037089347882E-12  -6.137245125151644E-12   1.6244941334677715E-11
2.35E-5                   1.6583596703245363E-11   4.509325121435449E-11    1.5709557587053344E-12   -1.5917712987848384E-11  -5.987216525914425E-11   -2.1427783460589156E-10  -9.974700546228595E-11   6.66292078209559E-11     -2.1298590697927226E-12  -8.601001889572131E-12   4.012465202892957E-11
2.4E-5                    1.634063544995119E-11    4.233143836187106E-11    -3.047760433052415E-11   -6.184118598165628E-11   -1.299570973977862E-10   -3.3547113809338585E-10  -1.992857640038004E-10   3.3590274006468624E-11   -3.325904960016519E-12   -1.1197334217888236E-11  6.72177323455072E-11
2.45E-5                   1.387423567444249E-11    3.239801849336147E-11    -6.480333175487288E-11   -1.0949513907800693E-10  -2.1430876099141442E-10  -4.877621951176441E-10   -3.1861471228351143E-10  -1.2610289089828313E-11  -4.908701908110967E-12   -1.3256699059648227E-11  9.959587768458181E-11
2.4999999999999998E-5     9.649038732901913E-12    1.408206965734343E-11    -1.0159430559289315E-10  -1.5641571623157926E-10  -3.1179283049928437E-10  -6.643577973407288E-10   -4.624664884941074E-10   -7.390807940733598E-11   -6.795052631986042E-12   -1.3813213630684245E-11  1.3855779697145115E-10
2.55E-5                   4.010377590754323E-12    -1.0982331417127858E-11  -1.449790978239977E-10   -2.0735344648082352E-10  -4.2121604586584353E-10  -8.552975116893621E-10   -6.340393336799628E-10   -1.5060726927542905E-10  -8.74079960793714E-12    -1.197273281934154E-11   1.8435993447535774E-10
2.6E-5                    -3.1653105119887118E-12  -3.971938440050023E-11   -1.9912262592254388E-10  -2.6891012000389677E-10  -5.436823089147564E-10   -1.0538003789747053E-9   -8.290559175918422E-10   -2.4278782490241143E-10  -1.0300991034877971E-11  -7.4064891432273E-12     2.3650847356556224E-10
2.65E-5                   -1.1978093825070542E-11  -7.06269822475666E-11    -2.6347107726841824E-10  -3.416073975324607E-10   -6.81283337697382E-10    -1.2565787416138186E-9   -1.0346756839977157E-9   -3.502244245142285E-10   -1.0866440545894508E-11  -5.927665708465072E-13   2.928239824870706E-10
2.7E-5                    -2.1946171270653E-11     -1.0539342746498308E-10  -3.311745737669023E-10   -4.1776862175943384E-10  -8.334099672218105E-10   -1.4593769295811157E-9   -1.2351526931467307E-9   -4.697931225399583E-10   -9.834487391685711E-12   7.433402753012422E-12    3.484286391364643E-10
2.7499999999999998E-5     -3.241593515308373E-11   -1.472932482337833E-10   -3.9241621235954764E-10  -4.870281061560502E-10   -9.936694735905572E-10   -1.6518796089607394E-9   -1.4189337387462712E-9   -5.941217108614307E-10   -6.872816529355486E-12   1.5694523033649116E-11   3.9738408351896654E-10
2.8E-5                    -4.362523613632894E-11   -1.9785055787114182E-10  -4.404010267913338E-10   -5.436596125591063E-10   -1.1498230660451644E-9   -1.8173981947170964E-9   -1.5803121647012661E-9   -7.144942486885347E-10   -2.1157997780365507E-12  2.3835792741996515E-11   4.3634613731551443E-10
2.8499999999999998E-5     -5.69517577716506E-11    -2.549825047902601E-10   -4.749215654709727E-10   -5.891611622265874E-10   -1.2879037340115666E-9   -1.938740654273753E-9    -1.7141813180650526E-9   -8.259568317909561E-10   3.873444901118559E-12    3.2231210417383675E-11   4.660564431555088E-10
2.9E-5                    -7.36695683387193E-11    -3.140368603955423E-10   -5.000975252980643E-10   -6.286377358399018E-10   -1.3979822385428345E-9   -2.002465208425255E-9    -1.8092878592848753E-9   -9.295649895566116E-10   1.040746372713698E-11    4.153814597554006E-11    4.884697996937216E-10
2.95E-5                   -9.33719671734933E-11    -3.701148901603812E-10   -5.183456045912681E-10   -6.644926153828099E-10   -1.475512557642929E-9    -1.9942620022728945E-9   -1.8470368436419698E-9   -1.028595068580584E-9    1.7090985857096497E-11   5.2056815987618324E-11   5.023712939109462E-10
2.9999999999999997E-5     -1.1373376036619048E-10  -4.1930923378831924E-10  -5.261237397228262E-10   -6.923710322772969E-10   -1.5155972240992607E-9   -1.8926591241765786E-9   -1.8070594862243152E-9   -1.1207991420234517E-9   2.407290079073354E-11    6.341603346191745E-11    5.017860670183137E-10
3.05E-5                   -1.3186132431793084E-10  -4.5830010133003905E-10  -5.147196562659812E-10   -7.022612548052099E-10   -1.5061229701623273E-9   -1.673726312699121E-9    -1.6731903624606123E-9   -1.1933656449546212E-9   3.191923861321963E-11    7.474037268216197E-11    4.78116773867503E-10
3.1E-5                    -1.4591006108910229E-10  -4.835011606267295E-10   -4.744304929231825E-10   -6.833723053942573E-10   -1.4281164736370478E-9   -1.3231508673160184E-9   -1.433653635979085E-9    -1.225892051627237E-9    4.117727095877473E-11    8.496848945153911E-11    4.235285660413821E-10
3.15E-5                   -1.5562174244150464E-10  -4.90852083564765E-10    -3.982963717269893E-10   -6.279250033405621E-10   -1.2632748075631305E-9   -8.386174350019293E-10   -1.0772543998981438E-9   -1.1990710193374553E-9   5.1976777076179985E-11   9.302329871867682E-11    3.330420026350663E-10
3.2E-5                    -1.6154510674327054E-10  -4.762646744146861E-10   -2.831504149175292E-10   -5.304550120656981E-10   -9.998297965918095E-10   -2.1807145458364978E-10  -5.92011329641781E-10    -1.1012198227725223E-9   6.393001963435278E-11    9.794957561294182E-11    2.0475388082636215E-10
3.25E-5                   -1.6355863512845887E-10  -4.36149102911818E-10    -1.282897097933894E-10   -3.850323042434513E-10   -6.30344671860804E-10    5.497889891057529E-10    3.19264148472139E-11     -9.281106433750734E-10   7.621723720590242E-11    9.917798685289789E-11    3.8936516117534186E-11
3.2999999999999996E-5     -1.5959111586088012E-10  -3.675855627833229E-10   6.665374660456523E-11    -1.8576721082421869E-10  -1.457417917390458E-10   1.4784226601158295E-9    7.989116459269165E-10    -6.787530769185509E-10   8.7624101532211E-11      9.664498006320998E-11    -1.6311072047620777E-10
3.35E-5                   -1.4560089878930655E-10  -2.6803504434086774E-10  3.030346471661824E-10    6.864905881401257E-11    4.649811633748936E-10    2.566911012239624E-9     1.7067537238723267E-9    -3.5168881716737936E-10  9.662881317680668E-11    9.040537375042665E-11    -3.998280770394134E-10
3.4E-5                    -1.1749174657707662E-10  -1.34860042635735E-10    5.826182479849877E-10    3.7204932946699396E-10   1.2068687918557654E-9    3.7927383864635265E-9    2.7468316786587653E-9    5.667623682399409E-11    1.0182284931752205E-10   7.997141794282326E-11    -6.694038425965701E-10
3.45E-5                   -7.39500620506319E-11    3.471474816785676E-11    9.049979368061225E-10    7.141288038485152E-10    2.070570359698508E-9     5.120630178261685E-9     3.903481534880948E-9     5.51694883582446E-10     1.0250745140034013E-10   6.407254742503411E-11    -9.69043468257254E-10
3.5E-5                    -1.7481766276700034E-11  2.4272460636320337E-10   1.264491142594935E-9     1.086790284404452E-9     3.031874491524244E-9     6.5152143938276275E-9    5.152242145648074E-9     1.1374396535424742E-9    9.880136873154488E-11    4.11057521665504E-11     -1.2938205094385631E-9
3.5499999999999996E-5     4.8092114299640255E-11   4.89019509784892E-10     1.649172808968133E-9     1.4862962009280327E-9    4.059560106789167E-9     7.942340688997833E-9     6.45742985262574E-9      1.811666092508481E-9     9.090845828317136E-11    9.78793673824506E-12     -1.6354386990091924E-9
3.6E-5                    1.217947051183484E-10    7.702843714126117E-10    2.043361839703551E-9     1.909208758212248E-9     5.124480720988576E-9     9.35861537638956E-9      7.77022636049838E-9      2.5620066398254883E-9    7.811782494153334E-11    -3.054615297881874E-11   -1.981403566884098E-9
3.65E-5                   2.0712826804520557E-10   1.080264166407149E-9     2.431155791844525E-9     2.3470329388002868E-9    6.2022433153012446E-9    1.0701605461479822E-8    9.029077124030307E-9     3.3662086596206164E-9    5.850104938811178E-11    -7.997164499195645E-11   -2.3154836170421088E-9
3.7E-5                    3.0915175829340516E-10   1.4109676795738628E-9    2.7968192690899666E-9    2.7843858645543745E-9    7.26689655139972E-9      1.1890024093640546E-8    1.0163361876835025E-8    4.1956800543565805E-9    2.9620037681913705E-11   -1.379948794848687E-10   -2.6197941825131014E-9
3.75E-5                   4.2941289384983027E-10   1.7539030439026278E-9    3.121336476803896E-9     3.2005442620724544E-9    8.280273083957464E-9     1.2831958735881727E-8    1.1099238437479063E-8    5.018961401072853E-9     -1.0360991415757683E-11  -2.0355548928072883E-10  -2.877037991036352E-9
3.7999999999999995E-5     5.630637618322756E-10    2.1002775698506946E-9    3.3795103190605083E-9    3.5720528698093817E-9    9.186292788856937E-9     1.3434457507244524E-8    1.1764679286659185E-8    5.802390919145124E-9     -6.197881236737767E-11   -2.7524590214647935E-10  -3.0706195072353188E-9
3.85E-5                   7.002488252016516E-10    2.439481136791001E-9     3.541846201160254E-9     3.8755614569496665E-9    9.916060860313924E-9     1.3610303756063504E-8    1.2090348298752019E-8    6.508099306495942E-9     -1.244832938138943E-10   -3.51640939588554E-10    -3.1825339189757017E-9
3.9E-5                    8.302726702606844E-10    2.7562111146145446E-9    3.580110219171478E-9     4.090467944582711E-9     1.0399305325534482E-8    1.3280364303330691E-8    1.2005904761670783E-8    7.092070414739775E-9     -1.962900463050198E-10   -4.3122502052628706E-10  -3.1920329260339496E-9
3.95E-5                   9.453520876621308E-10    3.0280957727907236E-9    3.471743175911097E-9     4.199831696417194E-9     1.0571563712676713E-8    1.2371998873431602E-8    1.1436672855632148E-8    7.504976813642967E-9     -2.7547957464510683E-10  -5.117184376057021E-10   -3.077799491661899E-9
3.9999999999999996E-5     1.0414911811734405E-9    3.2262304619748506E-9    3.2001040095746944E-9    4.188819913800633E-9     1.0372564394592151E-8    1.0817775289418521E-8    1.0307096574296483E-8    7.695580225683169E-9     -3.601051039101802E-10   -5.893809431939577E-10   -2.822360778116214E-9
4.0499999999999995E-5     1.1160857016571003E-9    3.319296375646193E-9     2.751696255350549E-9     4.042197147792922E-9     9.742483417886332E-9     8.559861036054555E-9     8.551327846269105E-9     7.613930721075757E-9     -4.481889807536557E-10   -6.59037180747173E-10    -2.4146460989435627E-9
4.1E-5                    1.164189204311361E-9     3.2789451579461805E-9    2.1138344014838724E-9    3.7427710450001786E-9    8.624911099672697E-9     5.560140226830241E-9     6.12457667779956E-9      7.212883238260055E-9     -5.373724945651194E-10   -7.147732335766597E-10   -1.8488207236864087E-9
4.15E-5                   1.1766177058621489E-9    3.082977845641536E-9     1.2755365459967319E-9    3.271713816739244E-9     6.975565478212317E-9     1.8097305701652125E-9    3.0099506965764944E-9    6.450026950207927E-9     -6.243987179334542E-10   -7.505102866532401E-10   -1.1220694713016408E-9
4.2E-5                    1.141726334247057E-9     2.7149955297828584E-9    2.3168740345324205E-10   2.611491892852848E-9     4.767340539424757E-9     -2.6678303607556823E-9   -7.786448725695836E-10   5.292666984308427E-9     -7.048100690064477E-10   -7.599959592533829E-10   -2.34962197998392E-10
4.2499999999999996E-5     1.0493082269536495E-9    2.1624511351531855E-9    -1.0122186983855151E-9   1.751326213369873E-9     1.987537307885724E-9     -7.818289472053275E-9    -5.195097858057643E-9    3.7243849952650683E-9    -7.730956044284576E-10   -7.367007385564037E-10   8.055853263672717E-10
4.2999999999999995E-5     8.929735691400993E-10    1.4160602992940328E-9    -2.4375449018413216E-9   6.923086150552434E-10    -1.3643724990420625E-9   -1.3556690886618412E-8   -1.0161048971656808E-8   1.748126338719198E-9     -8.230951697115625E-10   -6.743336840054893E-10   1.983794894051506E-9
4.35E-5                   6.691221739232068E-10    4.716800463775348E-10    -4.012555028312707E-9    -5.516636747662383E-10   -5.268528554198252E-9    -1.9762588927783934E-8   -1.556762044064306E-8    -6.168443965842866E-10   -8.482754483561357E-10   -5.679163118640693E-10   3.27474979096331E-9
4.4E-5                    3.744363773890926E-10    -6.666725034936296E-10   -5.693793031769259E-9    -1.9569787373366995E-9   -9.669592033350938E-9    -2.6275096956726853E-8   -2.1277224871708977E-8   -3.340401636582114E-9    -8.417799867697531E-10   -4.1467426481182E-10     4.645265553457528E-9
4.45E-5                   5.40089086164385E-12     -1.9846767268648378E-9   -7.428128160849232E-9    -3.4930250456086627E-9   -1.4469263910997009E-8   -3.2893589844809335E-8   -2.712308006642533E-8    -6.382727182542349E-9    -7.965265484942691E-10   -2.1422485994034994E-10  6.054477696810004E-9
4.4999999999999996E-5     -4.3898310581551447E-10  -3.4572149958099892E-9   -9.154988972146584E-9    -5.121978768670952E-9    -1.953396337940044E-8    -3.938298986147363E-8    -3.290608831528868E-8    -9.688377281336041E-9    -7.056275424872453E-10   3.182293944744059E-11    7.45441867925612E-9
4.5499999999999995E-5     -9.536653055916568E-10   -5.048740363725483E-9    -1.08072203057974E-8     -6.798545498041454E-9    -2.470938587622402E-8    -4.547898169709215E-8    -3.8391976995386125E-8   -1.3176970746825927E-8   -5.631060904161221E-10   3.2041862209533707E-10   8.791406213862935E-9
4.6E-5                    -1.5264717543415285E-9   -6.713417881824141E-9    -1.2309739872772337E-8   -8.473301731339376E-9    -2.9828777590295316E-8   -5.08938657367344E-8     -4.331423880864221E-8    -1.6737368601356627E-8   -3.646290658327509E-10   6.473348337064312E-10    1.0008097871122748E-8
4.65E-5                   -2.1401894265223974E-9   -8.395000784960143E-9    -1.3578594534203417E-8   -1.0097937573732066E-8   -3.471147041039895E-8    -5.532755618677108E-8    -4.738721852445116E-8    -2.023031656705129E-8    -1.0797836468692416E-10  1.0068450413658662E-9    1.104557831349866E-8
4.7E-5                    -2.7753487773180078E-9   -1.0027392373938234E-8   -1.4524331125074114E-8   -1.1627157942208447E-8   -3.915847429694687E-8    -5.848237304479367E-8    -5.0326894225412207E-8   -2.349948741202707E-8    2.0678474685988772E-10   1.3909371889912978E-9    1.1845240046618045E-8
4.7499999999999996E-5     -3.4109029367910857E-9   -1.1536507092616954E-8   -1.5059606184828043E-8   -1.3015844220823179E-8   -4.295240497451893E-8    -6.007446396804754E-8    -5.1870185526096415E-8   -2.638550769422867E-8    5.772128335954104E-10    1.7887503374240056E-9    1.2350473116673829E-8
4.8E-5                    -4.0226477752103666E-9   -1.28428276418439E-8     -1.5106337657513955E-8   -1.4216108146957395E-8   -4.586359103726016E-8    -5.983977269936204E-8    -5.178535054945838E-8    -2.8735567896417504E-8   9.981224138259087E-10    2.1868539826676328E-9    1.2508353534317618E-8
4.85E-5                   -4.581734963508044E-9    -1.3863617638838902E-8   -1.4598813293539758E-8   -1.5178612447690614E-8   -4.766053086669508E-8    -5.754138298798141E-8    -4.987512941200931E-8    -3.0405232849494896E-8   1.4610239589097262E-9    2.5700849689688378E-9    1.2272036018512984E-8