% Model:              Untitled.mph
% Version:            COMSOL 6.0.0.405
% Date:               Jul 15 2025, 11:49
% Dimension:          1
% Nodes:              401
% Expressions:        11
% Description:        Point graph
% Time (s)                Displacement field, Y component Displacement field, Y component Displacement field, Y component Displacement field, Y component Displacement field, Y component Displacement field, Y component Displacement field, Y component Displacement field, Y component Displacement field, Y component Displacement field, Y component Displacement field, Y component
0                         -4.2556740190949407E-32  -4.835164803576335E-32   -2.2538927588662574E-32  -3.115901014482834E-34   -4.700460603018953E-35   1.2467506993943971E-35   -1.755075296648383E-35   -3.1704555249156E-36     -3.703271610685302E-37   3.8399947522666063E-32   2.3971478105572983E-33
5.0E-7                    -1.0582166732929986E-23  -7.678813728523423E-24   2.6918431314664472E-25   -7.040912420076169E-25   6.63320185663582E-27     -9.077500017731734E-27   2.2713603073603436E-27   4.018797033381656E-28    4.365501601454627E-29    -4.440277356731911E-24   6.61689593222387E-25
1.0E-6                    9.53302541653767E-23     1.0335718326526444E-22   7.85308595502789E-24     1.1242702635497022E-24   -1.7318675693560512E-26  5.232249439863766E-26    2.416652180281251E-28    2.6159692814377878E-28   6.979716398382542E-29    2.258724402141637E-24    1.755904927948392E-24
1.5E-6                    -2.146940336285795E-22   -2.6127548365713883E-22  5.57599511851688E-24     4.306306968031903E-24    2.0845513592595733E-26   -1.7787203582362353E-26  -2.0945335226398588E-26  -5.515532732853465E-27   -8.406789781047208E-28   2.1599095539565307E-23   -3.541004575616193E-23
2.0E-6                    9.447337962647925E-23    -1.3592579657570197E-23  2.560317735643127E-22    -6.74047291075109E-23    2.9958238595874024E-25   -8.525149972772105E-26   9.962361499862791E-26    2.44908812462062E-26     3.104213606404515E-27    1.2660877893009958E-22   -8.398187315189444E-23
2.4999999999999998E-6     -1.694746415515216E-21   -9.379896718831676E-22   -1.2218071482178352E-21  2.695149030652299E-22    -1.0288106918336474E-24  -2.7352366046809146E-24  -3.210872755887135E-25   -6.319310751314934E-26   -5.643297655350201E-27   4.1335503319059295E-22   5.898209171059727E-22
3.0E-6                    1.1903585559079332E-21   2.9055923358165293E-21   4.1728489138563567E-22   1.0315312951519882E-21   2.629663210927411E-25    2.4430640458712033E-24   6.969409545289049E-25    7.387467067464888E-26    3.128721137785839E-27    -1.1958369400025265E-21  1.1207093321742482E-21
3.5E-6                    1.6429936752917803E-20   7.003048181268241E-21    1.2809985749141176E-21   -4.446801549590066E-21   -1.4995490189226662E-23  4.0050710761009596E-23   -3.571178072095932E-25   1.068850383241165E-25    4.96466791005027E-27     5.689512311884844E-21    -2.888936150713916E-21
4.0E-6                    -9.66800440349327E-21    -7.065085616056529E-21   -3.292602492485707E-21   -8.593924423503345E-21   4.287731680865116E-23    -2.429560633627881E-23   -2.730233783506949E-24   -5.312503302111667E-25   -2.3913422273285706E-26  7.792822129660877E-21    -1.1504839119107483E-20
4.5E-6                    -1.5743279799928272E-19  -3.148799169369152E-20   1.3680447690333163E-20   3.093369861155113E-20    2.3747606128896417E-22   -3.238083228497704E-22   6.329362785363783E-24    5.3018150935105075E-25   8.281763498527321E-26    -8.748852075521997E-21   -2.319002835337765E-23
4.9999999999999996E-6     -1.1799541972549493E-19  -6.309305178014899E-20   -1.353135901405744E-20   5.607641852704864E-20    -3.762307579043886E-22   3.7273510772872557E-23   1.53016127152638E-25     1.3478863304837124E-24   7.147544428608187E-26    -4.016647580439944E-21   6.897293447932112E-20
5.5E-6                    7.931269733404174E-19    -5.257728507111867E-21   -8.582636285078465E-20   -1.3039452150963046E-19  -2.107602010292408E-21   1.888814933531963E-21    -1.5470373842486295E-23  -5.695261666256621E-24   -7.042120840054776E-25   -5.07116207667971E-20    1.0284145923567365E-19
6.0E-6                    7.920140221173904E-19    2.279410913322667E-19    8.088272842467947E-20    -3.204401122967958E-19   6.1156305531018E-22      7.338247665460575E-22    1.728323443986331E-23    -1.161597742338709E-25   -8.117099884927208E-25   -2.1327164518033255E-19  -1.940383526093346E-19
6.5E-6                    -4.1546481546016465E-18  6.371634010919705E-19    2.530933043501574E-19    2.547495279468842E-19    1.2543001616668219E-20   -8.245668463622286E-21   -2.0960728912081523E-23  4.6011076827975675E-23   4.6518528658174584E-24   -2.1231562344002568E-19  -7.202891708282371E-19
7.0E-6                    -6.590535528812238E-18   5.530560117101566E-19    -6.060401807600776E-20   1.3118117838014854E-18   1.1613011281350949E-20   -6.683449430108151E-21   -9.621429907308225E-24   -2.4295814512215525E-23  7.306684697955198E-24    1.2949924699837376E-18   -1.2603183761341996E-19
7.499999999999999E-6      1.0425281420189138E-17   -5.289675195458202E-18   -8.038644846704033E-19   2.731330463524272E-19    -4.409784959986687E-20   2.738012801458278E-20    4.203273228938171E-22    -3.236914174158153E-22   -2.2889083425984512E-23  6.728252068461311E-18    2.7349061894624736E-18
8.0E-6                    1.996776287180018E-17    -1.7025026495692585E-17  -4.218197415457931E-18   -4.3432311470088916E-18  -1.1094369338899922E-19  2.976641458918793E-20    -6.228258842940507E-22   1.2619361590075644E-22   -4.631785238449515E-23   1.703882081733633E-17    4.268527691578458E-18
8.5E-6                    -5.581120356591574E-17   2.0005567199330722E-18   -8.519872338915636E-18   -6.044870939696481E-18   3.2548356546357083E-20   -7.901305984168649E-20   -3.327938977792338E-21   1.9214473717684854E-21   7.458156423973243E-23    3.7194471283441893E-17   -3.803544606231512E-18
9.0E-6                    -2.0476689119106187E-16  7.128779805670955E-17    2.2427140818883007E-18   6.22137890294873E-18     4.942672351225187E-19    -9.004566407652568E-20   5.749935017076753E-21    1.1600863831042687E-23   2.0828730615467864E-22   8.071462763773818E-17    -1.9106444858948653E-17
9.499999999999999E-6      -2.745112677421723E-16   2.1061893712710987E-17   1.2014769542732286E-17   2.0619234011379708E-17   5.467953861129197E-19    2.4676837807778193E-19   2.2537956877259917E-20   -9.56384579097956E-21    -1.2695083396900076E-22  1.698507700150838E-16    -1.1313441460885704E-17
9.999999999999999E-6      -3.1459090149909583E-16  -3.569093789466902E-16   -6.917243184731536E-17   -9.606172018232249E-18   -1.125681736931502E-18   2.32176524298268E-19     -3.211664347967937E-20   -4.800517639967253E-21   -6.25966923235584E-22    4.782765096302776E-16    4.7093791790899434E-17
1.05E-5                   -1.0333795567562502E-15  -6.628105361720181E-16   -2.5087048536215114E-16  -8.807146627377859E-17   -3.514852238776945E-18   -1.0113614910249661E-18  -1.4354617701178314E-19  3.914159934613663E-20    -1.518252329524852E-22   1.5467114613454293E-15   9.459573838512279E-17
1.1E-5                    -3.751919957156723E-15   -1.875888372688001E-16   -3.4500941699752974E-16  -9.97192266084499E-17    -1.1517550307176055E-18  -1.2836716206014238E-18  8.726868656670881E-20    4.146152241355406E-20    4.4185076604402435E-22   3.942301043675012E-15    -6.4517867677114686E-18
1.15E-5                   -9.817852451806082E-15   -7.226939135117443E-17   -3.837003310096891E-16   1.2214686966291267E-17   8.445442435770424E-18    2.8823684268307068E-18   7.223137532067746E-19    -1.3060338348683197E-19  2.2684438024691195E-22   8.02145176382335E-15     -2.0643824174601905E-16
1.2E-5                    -2.0945455469895565E-14  -3.6766838126004284E-15  -9.901289833327647E-16   -2.997984519174374E-17   1.1486480003102877E-17   5.685996400644696E-18    3.351433266961091E-20    -2.363707507718296E-19   4.958805127831449E-21    1.6557523369594387E-14   -9.172715393420581E-17
1.2499999999999999E-5     -4.2745054205267996E-14  -1.2039155536984394E-14  -2.7803202696769273E-15  -6.083049572711019E-16   -1.2855165740570889E-17  -6.948629523175131E-18   -3.140965024271423E-18   3.188430942444526E-19    9.570018832732755E-21    3.9035617070368195E-14   5.809913356428813E-16
1.3E-5                    -8.989206063351847E-14   -2.27478469978172E-14    -6.164551689889319E-15   -1.6700348826634565E-15  -5.2969652238424005E-17  -2.862614810548099E-17   -2.9416284109857765E-18  1.0126534344776824E-18   -2.9495204161144754E-20  9.083380362847814E-14    1.151388427713789E-15
1.35E-5                   -1.8822948827878376E-13  -4.203886322919011E-14   -1.274618218281455E-14   -3.1434559398593244E-15  -6.382345901542246E-17   -2.1492706916090956E-17  8.09779285683185E-18     -4.0958857400806637E-19  -1.0570166550423416E-19  1.9194249161538365E-13   9.00310420121568E-16
1.4E-5                    -3.792785278645756E-13   -9.662628273106076E-14   -2.500698564759909E-14   -6.351711436053479E-15   -5.676621049939117E-17   1.9282697407344444E-17   1.4210404988591434E-17   -3.5679954593646505E-18  -1.6969985832728067E-21  3.860600455660181E-13    1.2030693722667251E-15
1.45E-5                   -7.357920194184703E-13   -2.2673519805913894E-13  -4.439084867942155E-14   -1.4691653683562714E-14  -1.4712762998907412E-16  -2.229566614702766E-18   -2.071200877233983E-17   -1.3615603201283377E-18  4.1552615754677366E-19   7.772896326351512E-13    5.241862356021877E-15
1.4999999999999999E-5     -1.3638258780392024E-12  -4.855867530449559E-13   -7.975609081447392E-14   -3.399562357334184E-14   -4.2911505406403247E-16  -2.127184839040087E-16   -7.73265325337502E-17    9.341136247061082E-18    3.5862174037916106E-19   1.547030690159611E-12    1.4474952813215113E-14
1.55E-5                   -2.374937794341317E-12   -9.765291027013923E-13   -1.6834434147429078E-13  -7.63128111796115E-14    -1.011467476399537E-15   -6.376042895938637E-16   -4.5951423255173496E-17  1.0232001368797908E-17   -1.4194874472387665E-18  2.96410461041131E-12     2.863400536595614E-14
1.6E-5                    -3.9437607459035134E-12  -1.8752250542445915E-12  -3.778161270453563E-13   -1.6759387244474696E-13  -2.612978115020491E-15   -1.2631581399189715E-15  8.022350664653944E-17    -1.922390892639873E-17   -3.4436123838264663E-18  5.463150666689382E-12    5.3386305756499505E-14
1.6499999999999998E-5     -6.578982827040872E-12   -3.3923450239229185E-12  -7.70794057453377E-13    -3.535644622841496E-13   -6.879883520443362E-15   -2.315088762314342E-15   -2.386984073072258E-17   -4.4775832796579864E-17  -5.856185963691368E-19   9.715875099643317E-12    1.0778373587130775E-13
1.7E-5                    -1.1311439331547578E-11  -5.813937065311769E-12   -1.40290606033539E-12    -7.029698351600699E-13   -1.5136874542022898E-14  -4.646525854280758E-15   -7.056242406363413E-16   6.82170355209133E-18     6.7402664320442464E-18   1.6407228784681162E-11   2.253500235938813E-13
1.75E-5                   -1.914531091084195E-11   -9.699860111049417E-12   -2.4551138579059833E-12  -1.3217782375188711E-12  -2.790290410400423E-14   -1.0451284405886529E-14  -1.6369950449738622E-15  9.479352121533633E-17    2.0260914898566453E-18   2.5701967460784034E-11   4.555901198661482E-13
1.8E-5                    -2.9878747187502644E-11  -1.5823778566645878E-11  -4.4194073372872976E-12  -2.3888738001583448E-12  -5.1153018187226525E-14  -2.4085282620316616E-14  -2.1942409639432934E-15  2.1261816400559098E-18   -3.107778664982175E-17   3.701570355102005E-11    8.657884326660264E-13
1.85E-5                   -4.180160473114734E-11   -2.4397880536370594E-11  -8.014826672188924E-12   -4.1849203429904155E-12  -1.0805823008358354E-13  -5.182633820418015E-14   -3.505028699461743E-15   -3.54096490710049E-16    -6.908229173479612E-17   4.9550864803849377E-11   1.537263942193371E-12
1.8999999999999998E-5     -5.3381341624973125E-11  -3.426288569852897E-11   -1.3630423589018145E-11  -7.042800925302185E-12   -2.3984826956168405E-13  -1.0191977212792417E-13  -9.383434575878655E-15   -6.00991960184542E-16    -6.118476260700445E-17   6.283959854123556E-11    2.591318683885914E-12
1.95E-5                   -6.517822688321137E-11   -4.352609421474134E-11   -2.0696678655066937E-11  -1.1167708837338743E-11  -4.851811420936727E-13   -1.9125019470626176E-13  -2.333194210238822E-14   -4.543768100412526E-16   -4.090075567889403E-17   7.605957876609382E-11    4.277461288869794E-12
1.9999999999999998E-5     -7.874261572077388E-11   -5.152154056620025E-11   -2.7825191123693618E-11  -1.6384826553904294E-11  -8.687729115664006E-13   -3.599080634756862E-13   -4.5967435900154266E-14  -9.21677753800848E-16    -1.9135219563825157E-16  8.656104439044394E-11    6.987478838506239E-12
2.05E-5                   -9.273426795839793E-11   -5.950451881209375E-11   -3.393827337873382E-11   -2.1996093741240297E-11  -1.4545939638994402E-12  -6.776589729747562E-13   -8.197788833184471E-14   -4.1536177820425836E-15  -6.619948024527248E-16   8.99027060055575E-11     1.0949431021829845E-11
2.1E-5                    -1.0124675806635947E-10  -6.836884683971475E-11   -3.9214629187879177E-11  -2.6922660603654885E-11  -2.44836541460601E-12    -1.2279598335013236E-12  -1.5434405890068608E-13  -1.1123577243135951E-14  -1.3384204584623475E-15  8.25005313506147E-11     1.570911041996813E-11
2.1499999999999997E-5     -9.77182951253622E-11    -7.584202588974148E-11   -4.4337664723336605E-11  -3.0109164395076184E-11  -4.204009624226106E-12   -2.095187716060484E-12   -3.0608799903018326E-13  -2.1073230205603094E-14  -2.1483387866264102E-15  6.438970327591515E-11    2.004418581729615E-11
2.2E-5                    -8.03832111708126E-11    -7.713995514438779E-11   -4.8452356327972965E-11  -3.09072183571957E-11    -6.987659090431423E-12   -3.3963014517156667E-12  -5.790764147773683E-13   -3.7698122829686556E-14  -3.8502115645230236E-15  3.8451139447947303E-11   2.271868703909865E-11
2.2499999999999998E-5     -5.2239986089920915E-11  -6.876968301701676E-11   -4.845937184512076E-11   -2.912341740926996E-11   -1.0601188843458947E-11  -5.310867686978033E-12   -1.0000385978123981E-12  -7.810197322216424E-14   -8.068356522277053E-15   6.387162212910674E-12    2.3384305831170226E-11
2.3E-5                    -1.533807814392863E-11   -5.072175410897542E-11   -4.131834094246104E-11   -2.4734877088788274E-11  -1.4251020362023613E-11  -7.962853378334338E-12   -1.6194219420897218E-12  -1.7183661666796865E-13  -1.5993455477905312E-14  -3.377313515245113E-11   2.2470410633827146E-11
2.35E-5                   3.313652336228934E-11    -2.438488366368038E-11   -2.709906846694632E-11   -1.7635237168239102E-11  -1.6948382616723676E-11  -1.1117904732102926E-11  -2.58462631871136E-12    -3.483374514704097E-13   -2.8077285929133133E-14  -8.541479980534596E-11   2.0109187006288623E-11
2.4E-5                    9.789442941952006E-11    1.0705637907373066E-11   -8.712339540546078E-12   -7.69816508141876E-12    -1.8171717902266035E-11  -1.3970581282110024E-11  -4.135421492287098E-12   -6.357760849465611E-13   -4.76094490743325E-14    -1.4941030508516855E-10  1.55502686544145E-11
2.45E-5                   1.7974025622442437E-10   5.7015533500863484E-11   1.2037576968746171E-11   5.045215032742512E-12    -1.8086716191820974E-11  -1.5393690694179313E-11  -6.422890735604722E-12   -1.0914945221265054E-12  -8.557113895384411E-14   -2.2376001722986562E-10  7.954797946780937E-12
2.4999999999999998E-5     2.7422442720879705E-10   1.1632554699944156E-10   3.741645564629871E-11    2.056301679594314E-11    -1.6967936763739218E-11  -1.4600074796087938E-11  -9.230189274883873E-12   -1.8342916465420946E-12  -1.5918721992213433E-13  -3.065899061560123E-10   -2.5159057412653584E-12
2.55E-5                   3.7576425099518473E-10   1.8775740181240923E-10   7.174346369926596E-11    3.9297705124898536E-11   -1.4398707756127331E-11  -1.1623543260047648E-11  -1.1862334982006236E-11  -3.0103972452580605E-12  -2.8366594712492106E-13  -3.975368235110478E-10   -1.49513871725771E-11
2.6E-5                    4.817283563265292E-10    2.683862483701501E-10    1.1647586835977002E-10   6.228879044492322E-11    -9.248888652999924E-12   -7.107209981597612E-12   -1.3425504215129718E-11  -4.675447057677092E-12   -4.719001860906012E-13   -4.957145275808523E-10   -2.9090820617382365E-11
2.65E-5                   5.921850367281018E-10    3.553871209018706E-10    1.680907923959582E-10    9.041043912893673E-11    -6.393206813709795E-13   -1.634486350407965E-12   -1.337642387719903E-11   -6.68107757689371E-12    -7.567727663084104E-13   -5.978977950912512E-10   -4.598026575885964E-11
2.7E-5                    7.06713055542631E-10     4.4783201908357404E-10   2.2095469154593476E-10   1.2323148706367606E-10   1.1111912414474607E-11   4.653686773127601E-12    -1.1879563168067064E-11  -8.679203924300442E-12   -1.2220336315394143E-12  -6.99443976316593E-10    -6.68546803335318E-11
2.7499999999999998E-5     8.221512410201147E-10    5.466130929836333E-10    2.716241230614678E-10    1.5875397399737205E-10   2.4686930722185404E-11   1.1839045304753467E-11   -9.576827872779352E-12   -1.0246419386265378E-11  -1.9969275259875093E-12  -7.955511726756701E-10   -9.151045246608626E-11
2.8E-5                    9.327829228520188E-10    6.519226085857389E-10    3.2019938846410196E-10   1.9457077142379561E-10   3.8974005881103496E-11   1.9900625398174638E-11   -6.904697901726035E-12   -1.1020548300021288E-11  -3.1807873298243317E-12  -8.804175328638627E-10   -1.1810337622777736E-10
2.8499999999999998E-5     1.0314969853782628E-9    7.599896280430143E-10    3.683456461003455E-10    2.2934510873198084E-10   5.3981020352552886E-11   2.884544654315382E-11    -3.5808111274843213E-12  -1.0773159310342196E-11  -4.722787469619583E-12   -9.461530754710515E-10   -1.4452049804676303E-10
2.9E-5                    1.1101155211129523E-9    8.623002042487601E-10    4.1665096893399144E-10   2.629428182082856E-10    7.050508611190376E-11    3.906903584078513E-11    1.250136251104881E-12    -9.446884382340313E-12   -6.341515724461806E-12   -9.840771711129715E-10   -1.6965433051643143E-10
2.95E-5                   1.158724271511148E-9     9.483812886685256E-10    4.6330740988606695E-10   2.950068650803892E-10    8.900922692808687E-11    5.125846752739164E-11    8.382597211861324E-12    -7.191615919572659E-12   -7.573832017807252E-12   -9.870980996103103E-10   -1.9331274367900875E-10
2.9999999999999997E-5     1.1654840272930905E-9    1.009439817035448E-9     5.041945475289502E-10    3.235971085684305E-10    1.0891248428961117E-10   6.577336323448093E-11    1.8053035034842966E-11   -4.3453075373796565E-12  -7.976596782637163E-12   -9.498410354397797E-10   -2.152498947058085E-10
3.05E-5                   1.1182993753196656E-9    1.039439211631447E-9     5.3382903751442E-10      3.453773621705887E-10    1.2885459554204651E-10   8.222891654130868E-11    2.9969036911875196E-11   -1.2968533689019345E-12  -7.39504189390514E-12    -8.661624871749876E-10   -2.3446135566713804E-10
3.1E-5                    1.0074157823950457E-9    1.032993102492563E-9     5.466600752546641E-10    3.568875144789558E-10    1.4740785776199315E-10   9.969327551906452E-11    4.369432026279463E-11    1.7247978066391808E-12   -6.1187204557083704E-12  -7.27212515797526E-10    -2.490404387054585E-10
3.15E-5                   8.260864859824226E-10    9.823261730591339E-10    5.378584017061526E-10    3.552489541085162E-10    1.634276058006902E-10    1.1697623634760667E-10   5.897119437392885E-11    4.843068687383079E-12    -4.758544310371949E-12   -5.227428992009819E-10   -2.562960136926624E-10
3.2E-5                    5.683442584411904E-10    8.76274860988173E-10     5.030334870078071E-10    3.3768330857449114E-10   1.758394350729077E-10    1.325088941129821E-10    7.572592723443975E-11    8.684066358524493E-12    -3.850791066695759E-12   -2.4487234854721155E-10  -2.5319779944566433E-10
3.25E-5                   2.269466212747788E-10    7.026049547274977E-10    4.377085008259508E-10    3.0095574730601213E-10   1.8328866987722847E-10   1.443043241424727E-10    9.377155809479855E-11    1.4444460831463434E-11   -3.4357647342425807E-12  1.089493636688452E-10    -2.372586023981269E-10
3.2999999999999996E-5     -2.0524052028868903E-10  4.51732079151038E-10     3.379349910337691E-10    2.4195245560391046E-10   1.8409275162264304E-10   1.5065257194333583E-10   1.1245009454264303E-10   2.3659068637391757E-11   -2.9397112284560625E-12  5.360511045998547E-10    -2.0716709151071214E-10
3.35E-5                   -7.31666723848237E-10    1.1842158077371023E-10   2.017196934497978E-10    1.5895262221987467E-10   1.765048934666998E-10    1.509574232467804E-10    1.305809544843487E-10    3.746120155161323E-11    -1.4653299078832816E-12  1.030776769092402E-9     -1.62331375785815E-10
3.4E-5                    -1.3501235532007435E-9   -2.992855517861746E-10   2.917778575306586E-11    5.1925503907186695E-11   1.5897429956761684E-10   1.4540243746196627E-10   1.4686171101760652E-10   5.563124591864036E-11    1.7585874926745528E-12   1.5860141127715163E-9    -1.0173539910251984E-10
3.45E-5                   -2.0530753462236834E-9   -8.011061467039274E-10   -1.7944975835585528E-10  -7.885241885942955E-11   1.3018436887751708E-10   1.3341086130959288E-10   1.603224466068659E-10    7.62915480364483E-11     7.135675150365221E-12    2.19258798014507E-9      -2.3476295507548708E-11
3.5E-5                    -2.827620313827937E-9    -1.3835085875520682E-9   -4.2569946229405764E-10  -2.343389990743795E-10   8.898299613503657E-11    1.1256865132721075E-10   1.7022596625118342E-10   9.686177576274823E-11    1.477456902140354E-11    2.8375971477575925E-9    7.443179105049973E-11
3.5499999999999996E-5     -3.6539912842018153E-9   -2.0383136733840838E-9   -7.11805025421327E-10    -4.1625562946091367E-10  3.445836386710256E-11    7.937921700478947E-11    1.753986556746866E-10    1.1573542097708597E-10   2.463665131569642E-11    3.5031318094528395E-9    1.9280683013285285E-10
3.6E-5                    -4.504734756359277E-9    -2.752826231141782E-9    -1.0367549686622913E-9   -6.245408551256508E-10   -3.382532191166324E-11   3.120594858878993E-11    1.7372430490894586E-10   1.3320420668851022E-10   3.6498182342191624E-11   4.165442176883094E-9     3.306298361703579E-10
3.65E-5                   -5.3460814577011994E-9   -3.5101640479877403E-9   -1.392803609917985E-9    -8.550808617123409E-10   -1.1570917529164812E-10  -3.244017260669877E-11   1.6242685125421284E-10   1.506217510366157E-10    4.978582689204751E-11    4.794361523320877E-9     4.85174245447953E-10
3.7E-5                    -6.139917581260935E-9    -4.287786083094069E-9    -1.7655172541841933E-9   -1.0997315293802216E-9   -2.105924962579857E-10   -1.1023232347041814E-10  1.389042756523349E-10    1.6839872666730775E-10   6.360393000276588E-11    5.3537900720324035E-9    6.525773833522504E-10
3.75E-5                   -6.844221943177545E-9    -5.055651636830439E-9    -2.137357565822591E-9    -1.3481411155340458E-9   -3.175592154946679E-10   -2.002816354520008E-10   1.0132337769913812E-10   1.8459027432540574E-10   7.713257028040303E-11    5.803892421086675E-9     8.283644237995345E-10
3.7999999999999995E-5     -7.4123335953676555E-9   -5.777035975837178E-9    -2.4920118628114566E-9   -1.5894700322596796E-9   -4.3505946137623153E-10  -3.0096756542714656E-10  4.851298568425486E-11    1.953653093268918E-10    9.0160752314971E-11      6.104024208622039E-9     1.007349234313288E-9
3.85E-5                   -7.793145939907723E-9    -6.4116206938724764E-9   -2.8162168617585116E-9   -1.8129859361253308E-9   -5.602577193094899E-10   -4.106774207237461E-10   -2.0570241373593293E-11  1.969503119804499E-10    1.0326431893417865E-10   6.214736879611557E-9     1.1826879385741806E-9
3.9E-5                    -7.93327647182981E-9     -6.917276070156407E-9    -3.0977356535572525E-9   -2.007787011076922E-9    -6.887001985565952E-10   -5.268484390924209E-10   -1.0709314636787677E-10  1.8730879929282344E-10   1.1732652620047117E-10   6.098558568813064E-9     1.3449185677755417E-9
3.95E-5                   -7.780204182589813E-9    -7.249123815544656E-9    -3.321207633730902E-9    -2.1621296550146354E-9   -8.147041323242495E-10   -6.452229745962705E-10   -2.1180159950971868E-10  1.6609638806812691E-10   1.3260890702821528E-10   5.720760363096237E-9     1.4823690618074797E-9
3.9999999999999996E-5     -7.284846612459754E-9    -7.3587472384841946E-9   -3.4655450920368985E-9   -2.262733649722469E-9    -9.320505897507217E-10   -7.599675554796149E-10   -3.3393332179516614E-10  1.3307737791064683E-10   1.480075317583998E-10    5.0512475797359076E-9    1.5831113911945136E-9
4.0499999999999995E-5     -6.403490334058742E-9    -7.196380279103832E-9    -3.5053767964370688E-9   -2.29470935556828E-9     -1.0341955686818485E-9   -8.645991256777582E-10   -4.705711199875285E-10   8.665040005166126E-11    1.610913115402987E-10    4.067443593539164E-9     1.6367825453970728E-9
4.1E-5                    -5.100410147126767E-9    -6.715072905406485E-9    -3.415502424860822E-9    -2.242712545096195E-9    -1.1137920474576666E-9   -9.530098152838058E-10   -6.171745375661014E-10   2.3963479559426063E-11   1.689492576605621E-10    2.7570062478436243E-9    1.6345576443365362E-9
4.15E-5                   -3.351889404983609E-9    -5.874231183019411E-9    -3.1749889314973814E-9   -2.0930377143035118E-9   -1.162202261587453E-9    -1.0197174186721004E-9   -7.687438957826523E-10   -5.7539703654726844E-11  1.69183204982982E-10     1.1194614478099455E-9    1.5677050851697644E-9
4.2E-5                    -1.1504820557373892E-9   -4.642168633273365E-9    -2.7687401252880683E-9   -1.835390197445086E-9    -1.169882034588114E-9    -1.0590247659188254E-9   -9.201935892803064E-10   -1.5868366679600443E-10  1.602277026784355E-10    -8.329095307349513E-10   1.4268866394738192E-9
4.2499999999999996E-5     1.491995417445198E-9     -2.9988285914204145E-9   -2.1872368831985856E-9   -1.4631925427326986E-9   -1.1277324607097574E-9   -1.0638037129727208E-9   -1.0653507905924456E-9   -2.7844816454494726E-10  1.408209344182577E-10    -3.0739206742188357E-9   1.2034926462360542E-9
4.2999999999999995E-5     4.5426161894614855E-9    -9.38393418330002E-10    -1.4262514475986657E-9   -9.726492720931055E-10   -1.0284733704857426E-9   -1.0252284406789263E-9   -1.1957039381330954E-9   -4.148435655954629E-10   1.0932015272285623E-10   -5.5619509195586604E-9   8.919342712827079E-10
4.35E-5                   7.945675557015129E-9     1.5295022871149595E-9    -4.872069792983579E-10   -3.6222085699728554E-10  -8.669691275071896E-10   -9.34097319902518E-10    -1.300469839700779E-9    -5.655025127290128E-10   6.372220674164092E-11    -8.239009104141503E-9    4.908361831024606E-10
4.4E-5                    1.1621633686614694E-8    4.379500728774044E-9     6.221960691956928E-10    3.660394899816928E-10    -6.395517888270574E-10   -7.828380446159211E-10   -1.3681770545920899E-9   -7.27332223056545E-10    2.4744421216585576E-12   -1.1031001613976952E-8   2.4673513018767403E-12
4.45E-5                   1.5468153405030442E-8    7.569124339252942E-9     1.887248148440705E-9     1.2039127554229813E-9    -3.4355713055006605E-10  -5.666179454172853E-10   -1.3884925793349718E-9   -8.957777304674589E-10   -7.473374921519486E-11   -1.3848815030029448E-8   -5.683108931439566E-10
4.4999999999999996E-5     1.936311509902482E-8     1.103547976232642E-8     3.285304056889083E-9     2.1356003481590997E-9    2.1915916851952576E-11   -2.8314201415425456E-10  -1.3530167806456487E-9   -1.064564875670286E-9    -1.6703093542203574E-10  -1.6589886689366177E-8   -1.2139380997866228E-9
4.5499999999999995E-5     2.3167401584026915E-8    1.4691830220965795E-8    4.785152256778479E-9     3.138840680640918E-9     4.543811016174895E-10    6.767574169970101E-11    -1.2548310627483862E-9   -1.226057344760107E-9    -2.7323222652976294E-10  -1.9140529078967516E-8   -1.9226048480827834E-9
4.6E-5                    2.6726145612485382E-8    1.842659563587333E-8     6.34747701152175E-9      4.186903265636556E-9     9.467216603149279E-10    4.830742223637203E-10    -1.0874204134992913E-9   -1.3716627386164813E-9   -3.926434840021266E-10   -2.137910408094696E-8    -2.6765215503029407E-9
4.65E-5                   2.9870109194262275E-8    2.2105911093333996E-8    7.926316115383089E-9     5.248649063873659E-9     1.4870704251671666E-9    9.5640967190715E-10      -8.43809802498493E-10    -1.491856135709908E-9    -5.249731034748191E-10   -2.317982580697201E-8    -3.4515529521400158E-9
4.7E-5                    3.241974612353137E-8     2.5578681934638995E-8    9.470410316843316E-9     6.286543297717103E-9     2.0594931634234535E-9    1.4771393814234724E-9    -5.166833665049415E-10   -1.5760033570282834E-9   -6.693239097710581E-10   -2.4417406031507253E-8   -4.218627057656117E-9
4.7499999999999996E-5     3.4192178425429474E-8    2.868180912261925E-8     1.0923663622221689E-8    7.255854054387735E-9     2.6447258917355084E-9    2.0319752751078623E-9    -9.991485541891008E-11   -1.6124577468300784E-9   -8.229891528995381E-10   -2.4972917174243936E-8   -4.945884269147316E-9
4.8E-5                    3.500928801831602E-8     3.124410898565446E-8     1.2225158866577382E-8    8.107643962533512E-9     3.2205667013744623E-9    2.6056870463188165E-9    4.088591475889789E-10    -1.5891453439658026E-9   -9.808534028302529E-10   -2.4740329274005336E-8   -5.600153180201404E-9
4.85E-5                   3.4705966255338164E-8    3.308983236939474E-8     1.3309819307681004E-8    8.79399219213149E-9      3.762064218560565E-9     3.180302930273806E-9     1.0058364899960703E-9    -1.49443925218349E-9     -1.1356568507950283E-9   -2.3632649926080975E-8   -6.147318240980288E-9