% Model:              Untitled.mph
% Version:            COMSOL 6.0.0.405
% Date:               Jul 16 2025, 20:23
% Dimension:          1
% Nodes:              401
% Expressions:        11
% Description:        Point graph
% Time (s)                Displacement field, Y component Displacement field, Y component Displacement field, Y component Displacement field, Y component Displacement field, Y component Displacement field, Y component Displacement field, Y component Displacement field, Y component Displacement field, Y component Displacement field, Y component Displacement field, Y component
0                         -3.9178367467396267E-32  -1.0747798393904065E-32  8.534701010915871E-32    -1.2758599384103238E-32  -2.7959639607074345E-34  2.9012387212960186E-31   2.971146887469632E-30    9.012066851809816E-30    2.4155676782510745E-30   4.10107656018925E-33     2.9008803194094563E-36
5.0E-7                    -1.3832124663124804E-23  1.0455182771233373E-24   -1.0032037778545928E-23  6.989655758820631E-25    -2.5532113916939278E-26  -4.0578062855014453E-23  5.8764777294490095E-22   -1.664874302180857E-21   -8.341791316388065E-22   2.764812972601266E-24    -1.5652457425165492E-28
1.0E-6                    8.051683654447863E-23    -1.4601657261478445E-24  5.39329940892744E-24     2.6080444651035753E-23   -8.540810112106493E-25   2.222162909876481E-23    -4.9229954024984794E-21  -9.237693848802319E-21   -6.912450674799624E-21   -1.8340371464519917E-23  1.5358122390369124E-28
1.5E-6                    -8.435595886652987E-23   -2.0613440947335233E-23  -1.0215074525267066E-23  -1.626715966719897E-22   4.1788996308885944E-24   4.896252788805191E-25    3.2385310769531344E-20   8.330261206099288E-20    4.7038265969573515E-20   3.1265056887075555E-23   -1.855239777718575E-27
2.0E-6                    3.558380450415869E-23    -4.072285981674331E-23   4.123687955275035E-22    2.7407083878043765E-22   -9.04214658202863E-26    7.469633174986813E-22    -9.742664818261235E-20   -2.9002270032987704E-19  -1.7980998380806425E-19  6.017335201580616E-24    1.2831200721353318E-27
2.4999999999999998E-6     -4.813247134346927E-22   1.8893854547673835E-22   -1.3656538270934118E-21  2.7718543421610217E-22   -2.695717104945072E-23   1.3148795621323238E-21   1.4495362735100652E-20   6.597204949615859E-19    2.5317582200966086E-19   5.933837464606942E-23    5.101198685375274E-26
3.0E-6                    -1.9026851516144452E-22  1.6275412371911878E-21   -3.87311449937505E-23    -9.275757761402063E-22   -2.25867175367951E-23    -2.3957794238942208E-21  2.170160358040116E-19    -2.521377666889493E-20   1.0764209298177137E-18   -2.4197591954789033E-22  1.2447878877533435E-25
3.5E-6                    2.7186134966490332E-21   5.4747488263846224E-21   5.574008655157429E-21    -6.759596926669092E-22   7.540386308613202E-23    -4.50630651735785E-21    -2.848358152235618E-20   -4.8327005454736475E-18  -2.422738286284803E-18   -6.230694264805427E-22   -5.535033331392408E-25
4.0E-6                    6.596107342056748E-21    5.8634646729842945E-21   -1.0557678505072553E-20  -1.5137757873594559E-22  3.2200565145639074E-22   3.3246409996919935E-23   1.1547374722357393E-18   6.926185207460162E-18    -3.976382344539702E-18   1.9084441965632693E-21   -1.4611394196612225E-24
4.5E-6                    -7.193426878748863E-21   -2.9090000042109523E-20  -6.76805145999766E-20    7.083908115938471E-22    -1.3391526926981185E-22  2.40135294183512E-20     -1.599313673853574E-18   1.6970139986457136E-17   6.955957904374707E-18    3.9302734981780375E-21   6.3612174690849074E-24
4.9999999999999996E-6     -5.809134200574827E-20   -1.3986397159250941E-19  -5.252691270062947E-21   3.5354092004693034E-21   -3.029766957987243E-21   1.0108812245507772E-19   -1.0742566289045917E-17  -3.0275604365241697E-17  1.3296737883136999E-17   -4.647264652598742E-22   1.8478805814915416E-23
5.5E-6                    -6.401616275190122E-20   -2.0418217234429843E-19  5.038896425496678E-19    2.0430685957815237E-20   -3.869269219455179E-21   3.024369912856721E-19    6.6319075904674156E-18   -4.6872858590889197E-17  3.0327787259951785E-18   -1.4037348612024024E-20  -2.081819997233869E-23
6.0E-6                    3.187907963977539E-19    2.5786885191918236E-19   1.8026419943440072E-19   -8.315233962177386E-21   1.1071088658374924E-20   2.0000284450006108E-19   5.2868768138816815E-17   5.324033342348883E-17    -2.776547677526689E-17   -2.5978915666631752E-20  -9.386396894470059E-23
6.5E-6                    1.0123191096311458E-18   1.2774111755587192E-18   -2.3508148845544484E-18  -3.6031221797194426E-19  2.45646094686675E-20     -9.015011224648574E-19   9.540730603037708E-18    9.233024227398719E-17    -1.0029827491358872E-16  1.0343277692227646E-19   1.409830659251846E-22
7.0E-6                    -1.1049924163748142E-18  5.163857151928223E-19    -1.629472514978688E-18   -6.008113934163484E-19   -4.424750284319046E-20   -1.110598581354147E-18   -1.62540668539896E-16    8.190575232406036E-17    -1.5458864935856256E-17  4.310610760100971E-19    8.715860592881248E-22
7.499999999999999E-6      -7.910513927927998E-18   -4.820157647959081E-18   4.7315889230338216E-18   1.1786693886309809E-18   -1.8025091664216885E-19  3.764283274805425E-18    -1.5817906101162138E-16  8.524080225216272E-17    4.655138473868183E-16    1.3402689031437098E-19   6.931567303605733E-22
8.0E-6                    -2.762437611469645E-18   -9.270292155912144E-18   1.530872504184508E-18    3.1298871579784058E-18   -9.877421519981589E-20   2.0480465036592766E-17   3.0363874583280787E-16   -6.823387348977905E-16   4.793938159347165E-16    -1.2238244438797958E-18  -1.5704287933215725E-21
8.5E-6                    3.555661379050353E-17    -1.2355673720902637E-19  -1.2615376615697993E-17  -4.962824141586511E-18   2.201482555205919E-19    5.4513762960207725E-17   7.912457343667553E-16    -1.5367592666202427E-15  -1.1130841985053233E-15  5.387945868277944E-19    1.8752980205513764E-21
9.0E-6                    5.235310929815244E-17    9.778125908792252E-18    -8.160445458517301E-18   -2.3898961381802316E-17  -3.223051312731065E-19   4.394179560936775E-17    2.919895117255441E-16    1.4934443622146709E-15   -2.0159097039763837E-15  1.0572242411234058E-17   2.6482421533652432E-20
9.499999999999999E-6      -8.66216013560337E-17    -4.251887116174218E-17   7.092877475389296E-18    -2.2898914312427237E-17  -2.660378208016509E-18   -1.2470128514749774E-16  -1.6137450597589004E-15  6.742205124685137E-15    1.6822491580001142E-15   1.859133421622277E-17    6.177473727028348E-20
9.999999999999999E-6      -3.169454022974325E-16   -1.7040685550387494E-16  -4.355796607448958E-17   1.885947019683224E-17    -4.899370386747066E-18   -1.389520964261676E-16   -2.717670630439436E-15   1.6213238099661993E-15   5.9787199027961935E-15   6.626081959115159E-18    6.698165114064056E-20
1.05E-5                   -1.0177049245337425E-16  -1.7610905776521364E-16  -2.2430219502088585E-16  1.6931897054946083E-17   -6.731837246501028E-18   9.315705114761143E-16    2.31787488274791E-15     -1.4195517319023316E-14  9.504454646104683E-16    1.046693715175509E-17    1.152830661993355E-19
1.1E-5                    9.28212715089957E-16     9.780315217312087E-17    -4.2604233277889156E-16  -2.0929476766125623E-16  -2.0371640950989166E-17  2.7379372862187954E-15   1.3249574203915878E-14   -1.205673337383404E-14   -9.097791437531898E-15   1.3770314845491854E-16   5.657115297620764E-19
1.15E-5                   1.422145502700262E-15    3.0000119081526805E-17   -2.947452322191123E-16   -7.113196363747311E-16   -6.233931999117497E-17   1.9776358477357143E-15   1.2043121701764707E-14   2.050525110482124E-14    -3.9110937508218995E-15  4.2017596405265427E-16   1.9107698814852403E-18
1.2E-5                    -1.2899768123856689E-15  -1.5933348566466118E-15  -6.765097029110282E-17   -1.2068449477206868E-15  -1.2814667819298596E-16  -2.072928843734489E-15   -1.627093138031241E-14   3.8343686088258726E-14   1.7880780373494596E-14   7.150311675303177E-16    4.5056265162666665E-18
1.2499999999999999E-5     -6.145720817519025E-15   -4.629331618313601E-15   -1.7707247774188984E-15  -1.4794832911317448E-15  -2.3607416853086277E-16  1.4576049706680216E-15   -2.887590390523097E-14   1.1233716627510951E-14   2.645201539658647E-14    1.1045128076648752E-15   9.135755970471336E-18
1.3E-5                    -4.616114110684649E-15   -7.059760699335316E-15   -6.8938601787212765E-15  -2.567614072867317E-15   -5.620684365158046E-16   2.6572704270572358E-14   5.3760221647964965E-14   4.699866886236847E-15    1.120677775630376E-14    2.5434876533267064E-15   1.9206271740347842E-17
1.35E-5                   9.22527262267093E-15     -9.1443639819234E-15     -1.2048668751930699E-14  -7.531786546766196E-15   -1.436645710605462E-15   6.2468652719317E-14      1.9361285090268043E-13   7.125887807354317E-14    1.1679609950626054E-14   6.5737729339970925E-15   4.5732774126748233E-17
1.4E-5                    1.9831720339080108E-14   -1.699975028939119E-14   -1.5063549632997066E-14  -2.0102114978325045E-14  -3.1049523831096385E-15  7.518280160574148E-14    1.9057887611791427E-13   1.1729429865608077E-13   5.849670600939897E-14    1.414069153064992E-14    1.15471322472976E-16
1.45E-5                   -3.66712535537404E-15    -3.841223598538166E-14   -2.9320236399459084E-14  -4.2194585168317714E-14  -5.918456553943469E-15   7.638835198129132E-14    8.062692739333506E-15    1.0162611270486232E-13   1.340993205138549E-13    2.6518717623907986E-14   2.7481994470507923E-16
1.4999999999999999E-5     -6.038881245966271E-14   -8.073894126388209E-14   -7.503768983749686E-14   -7.493446315381103E-14   -1.1618491506375953E-14  1.8263867625041937E-13   9.08064176775235E-14     3.2154240645069605E-13   2.6169569104057816E-13   5.015299498569146E-14    5.90970949037842E-16
1.55E-5                   -8.736477860558657E-14   -1.6809537087441854E-13  -1.4989887560139096E-13  -1.274807717695651E-13   -2.4450746085334335E-14  5.311149755249721E-13    9.398873926214E-13       1.0982428811069374E-12   5.5856514107581E-13      9.981984849764624E-14    1.213265089747864E-15
1.6E-5                    -2.4384154704624352E-14  -3.5751475221154216E-13  -2.5389429912934747E-13  -2.324667018218843E-13   -5.01444760938456E-14    1.0943514814433574E-12   2.234250243125463E-12    2.0975499143641343E-12   1.0634939136832126E-12   1.9433439763234676E-13   2.5795584332270382E-15
1.6499999999999998E-5     6.468995321126305E-14    -7.01143505932596E-13    -4.776228115498488E-13   -4.573778181398658E-13   -9.543386276834857E-14   1.688769517269628E-12    2.9968464179615707E-12   2.6047833775208443E-12   1.604740117526069E-12    3.5663799166861485E-13   5.671802146209135E-15
1.7E-5                    -1.883876544177072E-14   -1.1793592635001748E-12  -9.840423656065245E-13   -8.942765467353488E-13   -1.7507579188870884E-13  2.3729040614890044E-12   3.2604601527895367E-12   2.9998866271486543E-12   2.162295329800176E-12    6.379794997882154E-13    1.210497053949248E-14
1.75E-5                   -4.203673410108305E-13   -1.7712148429965716E-12  -1.8029776034256888E-12  -1.6313887809274406E-12  -3.246108966226097E-13   3.888532902008528E-12    5.1155323767585475E-12   5.404244141891971E-12    3.465420250552978E-12    1.1491449187279908E-12   2.4404806354212965E-14
1.8E-5                    -1.0172196638926452E-12  -2.760572478969208E-12   -2.788776533232412E-12   -2.764888183283933E-12   -6.023126256788864E-13   7.440702091515224E-12    1.0996269355556349E-11   1.1821675617966139E-11   6.855438504990999E-12    2.0466584497894276E-12   4.7652012689845364E-14
1.85E-5                   -1.4837294086271927E-12  -4.979285430426033E-12   -4.132379127324056E-12   -4.505450542215127E-12   -1.0751227363094976E-12  1.3660882712154744E-11   2.069244249206127E-11    2.154336629582943E-11    1.31164133210179E-11     3.4777866304839295E-12   9.28604740632495E-14
1.8999999999999998E-5     -1.7209919934037274E-12  -9.430568937874803E-12   -6.961172152129369E-12   -7.271838228288437E-12   -1.8220250744634603E-12  2.168788522963352E-11    3.091842047683739E-11    3.124847409843214E-11    2.145890467060585E-11    5.573705181458892E-12    1.79995368250518E-13
1.95E-5                   -2.3059667201989075E-12  -1.6256749253109885E-11  -1.2837155838621419E-11  -1.1504523811723398E-11  -2.981970009249829E-12   2.950092678553059E-11    3.8262862474362196E-11   3.8005022761269215E-11   2.993511069763509E-11    8.500431813124455E-12    3.385252544646535E-13
1.9999999999999998E-5     -4.4168106458789975E-12  -2.4011360655832507E-11  -2.1916362415045715E-11  -1.7135909852532666E-11  -4.77587960349743E-12    3.5309708141078347E-11   4.1825586238778916E-11   4.1476990681576445E-11   3.680108344464439E-11    1.2376794504231778E-11   6.08462444703401E-13
2.05E-5                   -9.070471642610007E-12   -3.031350666948704E-11   -3.1565105125755576E-11  -2.316383518916418E-11   -7.36984428052091E-12    3.8473143651785063E-11   4.245170089953153E-11    4.2751889701612676E-11   4.115728361256715E-11    1.6933565730485486E-11   1.0490687383058952E-12
2.1E-5                    -1.6243368969957647E-11  -3.356980333046073E-11   -3.757470298661628E-11   -2.7888861383945328E-11  -1.0604088923969856E-11  3.9013219763184867E-11   4.032365085540706E-11    4.175867887023738E-11    4.23958719119131E-11     2.1227514676084997E-11   1.756077022802205E-12
2.1499999999999997E-5     -2.4728329420321844E-11  -3.403190365106793E-11   -3.751455710847475E-11   -2.9696273566207054E-11  -1.387859031563641E-11   3.6670513355535746E-11   3.4544249882098977E-11   3.680919265652015E-11    3.9768356021700757E-11   2.3930147787498008E-11   2.870139664079475E-12
2.2E-5                    -3.290349785802912E-11   -3.3008263886277824E-11  -3.291281625300321E-11   -2.75969445142426E-11    -1.6445816339215473E-11  3.09488064273263E-11     2.4838876324423492E-11   2.663114203184835E-11    3.300684597977686E-11    2.4133789546332698E-11   4.541668903789658E-12
2.2499999999999998E-5     -3.964316485496312E-11   -3.113595429302601E-11   -2.759317733371878E-11   -2.1133463155461615E-11  -1.790031442881065E-11   2.1961011434330286E-11   1.2346235189038107E-11   1.211897323409366E-11    2.3003578429289673E-11   2.1837565106445112E-11   6.825263278197561E-12
2.3E-5                    -4.456690743590245E-11   -2.7622244746747887E-11  -2.3480977534831882E-11  -1.023763256768763E-11   -1.8336649587046325E-11  1.0571339318288003E-11   -1.862723034959329E-12   -4.36176982380561E-12    1.1139632261163065E-11   1.746788236057425E-11    9.534864692034642E-12
2.35E-5                   -4.766805262688598E-11   -2.1064311255926467E-11  -1.8183797697323024E-11  4.365454270740397E-12    -1.800168689454974E-11   -2.6911327384891663E-12  -1.8531118192446916E-11  -2.150629673434768E-11   -2.3085710520404194E-12  1.0961250697042225E-11   1.2174753628311479E-11
2.4E-5                    -4.884586013144229E-11   -1.0689488000949678E-11  -7.075218658068856E-12   2.0768660273071702E-11   -1.6877231923701877E-11  -1.867017593348009E-11   -4.003955598846092E-11   -4.108840401618875E-11   -1.885907858088209E-11   1.5997639645594054E-12   1.4067922236637447E-11
2.45E-5                   -4.7514924477316596E-11  3.2780866190707046E-12   1.2128068265447468E-11   3.6613188281508577E-11   -1.4623115307515206E-11  -3.925945095182015E-11   -6.863097775797209E-11   -6.745834448541157E-11   -4.0838005979763754E-11  -1.1090258401918566E-11  1.4653305341925343E-11
2.4999999999999998E-5     -4.223872871190059E-11   2.031964934183144E-11    3.7151768210761253E-11   5.081588880406201E-11    -1.0738617350557206E-11  -6.607140238413123E-11   -1.0489621820338763E-10  -1.0445829007324894E-10  -6.990762045179838E-11   -2.647900491731077E-11   1.3732302791375413E-11
2.55E-5                   -3.075327325361535E-11   4.074960613284393E-11    6.380016261326459E-11    6.462017544326238E-11    -4.6015180493388214E-12  -9.951896724366652E-11   -1.4768646853450055E-10  -1.5207834896859028E-10  -1.0652409697707936E-10  -4.3216645374035714E-11  1.1451345714111644E-11
2.6E-5                    -1.0831003657672833E-11  6.631150125094186E-11    9.060825691533035E-11    8.061393639857291E-11    4.522409630165248E-12    -1.3900709331849606E-10  -1.9512966474872154E-10  -2.058516439049945E-10   -1.5022963288830686E-10  -6.060284086178296E-11   8.041011255660908E-12
2.65E-5                   1.849035879135206E-11    9.933217088026743E-11    1.2027615685115507E-10   1.0042886552471111E-10   1.7205181775878533E-11   -1.8357565814140452E-10  -2.455323302381914E-10   -2.5965271102617494E-10  -1.997593732308981E-10   -7.938506876086209E-11   3.53093854004112E-12
2.7E-5                    5.655188410557519E-11    1.406045423895725E-10    1.5619059218101313E-10   1.2329457568817416E-10   3.348642321851518E-11    -2.320392690458058E-10   -2.9726843939348866E-10  -3.09339391207358E-10    -2.527375202808434E-10   -1.0089175385835195E-10  -2.357979550669532E-12
2.7499999999999998E-5     1.020324170685619E-10    1.8795694166112535E-10   1.9794455029541103E-10   1.4675942640817187E-10   5.2897090413518736E-11   -2.8261478273745654E-10  -3.4808893395550616E-10  -3.5415225594437487E-10  -3.0576654398687E-10     -1.2524126191388483E-10  -1.0065037325410879E-11
2.8E-5                    1.54028992836877E-10     2.374652716125369E-10    2.40819521735999E-10     1.6861397125396171E-10   7.492410602787489E-11    -3.3285755765766616E-10  -3.950892359514523E-10   -3.9529248887837397E-10  -3.553425438719812E-10   -1.5056456783097755E-10  -1.9842089321512677E-11
2.8499999999999998E-5     2.117476329014643E-10    2.8639148944014793E-10   2.795014496908272E-10    1.8783449780186446E-10   9.940158468327105E-11    -3.8029177861728893E-10  -4.3556835213155585E-10  -4.334488090272223E-10   -3.988789123703973E-10   -1.7424000397162288E-10  -3.148129366251681E-11
2.9E-5                    2.730467012102035E-10    3.3451872584466106E-10   3.116867834638382E-10    2.0359427064713683E-10   1.2641546725650035E-10   -4.229957773941499E-10   -4.675404067475371E-10   -4.670482338884963E-10   -4.3489822455825905E-10  -1.9488166930101971E-10  -4.449745209203167E-11
2.95E-5                   3.3397297816517534E-10   3.8222798405304307E-10   3.379767771640309E-10    2.1377944630915424E-10   1.558200543449004E-10    -4.5920011790576464E-10  -4.889963430078929E-10   -4.917545913918532E-10   -4.6233927216466635E-10  -2.1282225372867534E-10  -5.872300268378374E-11
2.9999999999999997E-5     3.908142677396049E-10    4.2756285309320705E-10   3.588537512774871E-10    2.1518243755394474E-10   1.8677499077196082E-10   -4.860787126387195E-10   -4.966598515945098E-10   -5.010417585080635E-10   -4.795996423907628E-10   -2.2847822048686564E-10  -7.45921620136362E-11
3.05E-5                   4.4300525983886235E-10   4.65562273994615E-10     3.721130117223532E-10    2.0549511543517602E-10   2.1768362495779935E-10   -4.989242116830128E-10   -4.855016671636381E-10   -4.876027783753278E-10   -4.837681103967747E-10   -2.404334021269225E-10   -9.249368839159077E-11
3.1E-5                    4.930413211374984E-10    4.902611761694726E-10    3.728609322369432E-10    1.8473665249360644E-10   2.4658081894846735E-10   -4.915567998449179E-10   -4.4931692028539213E-10  -4.451483987030954E-10   -4.702148003740269E-10   -2.4529204181756916E-10  -1.1171374645153073E-10
3.15E-5                   5.419469580628066E-10    4.969869922866823E-10    3.555774527968355E-10    1.5415158935455943E-10   2.71515603901183E-10     -4.5771886825990004E-10  -3.819601349259271E-10   -3.697728610763513E-10   -4.328156917615532E-10   -2.391455332413355E-10   -1.3025049227857537E-10
3.2E-5                    5.841751514782747E-10    4.829080752597383E-10    3.1636261603708824E-10   1.1374137344749538E-10   2.904333082298438E-10    -3.926158347781989E-10   -2.78810336335607E-10    -2.600849248676259E-10   -3.65068353399162E-10    -2.1883912577838603E-10  -1.4588933202839024E-10
3.25E-5                   6.077197968935483E-10    4.4588266200754483E-10   2.5370868654949306E-10   6.14510172912249E-11     3.0079701190895786E-10   -2.938113055519312E-10   -1.3779568477887036E-10  -1.1602083966765114E-10  -2.6174152860319775E-10  -1.820885237694349E-10   -1.5736840302394E-10
3.2999999999999996E-5     6.003047023261395E-10    3.8300843827202103E-10   1.6741757246210245E-10   -5.031903018714057E-12   2.9967741257732344E-10   -1.6091726735878564E-10  4.078916735845771E-11    6.264484448861925E-11    -1.2006432516305576E-10  -1.2725303991809306E-10  -1.6433578006820398E-10
3.35E-5                   5.558182085377794E-10    2.902474879189092E-10    5.6880454336261397E-11   -8.626471579417153E-11   2.8431854937664533E-10   5.820549313446756E-12    2.554113477451467E-10    2.765707418463776E-10    6.02782268163553E-11     -5.366167031952779E-11   -1.6630463585327806E-10
3.4E-5                    4.747538224876676E-10    1.6353124051070136E-10   -7.946500414650791E-11   -1.8129920102856356E-10  2.523056758957932E-10    2.067764969371642E-10    5.039999140468702E-10    5.253938645754855E-10    2.7796775642957903E-10   3.799146216333408E-11    -1.6192556190712128E-10
3.45E-5                   3.5899917471432764E-10   3.7705396084529976E-13   -2.4288862980661435E-10  -2.893644127196871E-10   2.0103186022605925E-10   4.424801492661038E-10    7.834426701219959E-10    8.059252461947807E-10    5.30553579902467E-10     1.462009279726442E-10    -1.4926022451792734E-10
3.5E-5                    2.0704832645338374E-10   -1.9949454989692454E-10  -4.325463018826849E-10   -4.100748899641069E-10   1.2744015423280512E-10   7.115733687440296E-10    1.0886809009287018E-9    1.1119209645756453E-9    8.140611707067006E-10    2.69942113765134E-10     -1.2645833426538224E-10
3.5499999999999996E-5     1.42199032786094E-11     -4.3480410997790186E-10  -6.447301232509642E-10   -5.412518619554493E-10   2.8868818014906133E-11   1.0093049204111594E-9    1.412468314790072E-9     1.4355184846014143E-9    1.1224081962057208E-9    4.0917049840215563E-10   -9.206088248975159E-11
3.6E-5                    -2.2349942873031922E-10  -7.03251599992812E-10    -8.735535775127573E-10   -6.767492349648248E-10   -9.571058064968741E-11   1.3280955484900556E-9    1.745649402069172E-9     1.768307568496413E-9     1.4475767108509665E-9    5.634924074168976E-10    -4.499057405578637E-11
3.65E-5                   -5.06421710984226E-10    -1.0009826688124185E-9   -1.1120237082069944E-9   -8.069760223730096E-10   -2.4541337121535425E-10  1.6590140163939303E-9    2.077102096115314E-9     2.1004267162290675E-9    1.780235896768151E-9     7.299307730046784E-10    1.5320148268252404E-11
3.7E-5                    -8.31030110693848E-10    -1.321918572143525E-9    -1.352336103139174E-9    -9.219594714479919E-10   -4.1828715070128805E-10  1.99186816849743E-9      2.393166291179592E-9     2.41861598561422E-9      2.1095318141617093E-9    9.01898857009441E-10     8.873567611500219E-11
3.75E-5                   -1.1912955815548704E-9   -1.658151755442465E-9    -1.5852440230684638E-9   -1.0143338788394719E-9   -6.121410711467438E-10   2.313681146651212E-9     2.6772738029354938E-9    2.7055013732828846E-9    2.421733973163715E-9     1.0704188066824476E-9    1.7457931863043026E-10
3.7999999999999995E-5     -1.579404849783262E-9    -2.0005975912462925E-9   -1.7993036762553075E-9   -1.0799184101845116E-9   -8.243816968800641E-10   2.6077165252634855E-9    2.9104394960022253E-9    2.9408616963446147E-9    2.6992385669798407E-9    1.2263557452647192E-9    2.720487229400075E-10
3.85E-5                   -1.98560566614216E-9     -2.3381314066111287E-9   -1.9808221765832548E-9   -1.115670064017342E-9    -1.0509839683109757E-9   2.854698895331857E-9     3.072470300762852E-9     3.103449861350613E-9     2.9214884950879434E-9    1.361508545870687E-9     3.80236310084504E-10
3.9E-5                    -2.3978520170296877E-9   -2.6555236619007673E-9   -2.1146596314949466E-9   -1.1167967795341811E-9   -1.285418328241689E-9    3.0352912551296507E-9    3.1431566040253685E-9    3.1719782937736878E-9    3.067400766971868E-9     1.4678438415071983E-9    4.974867495806597E-10
3.95E-5                   -2.801358113311012E-9    -2.9327283080126438E-9   -2.1855000911881715E-9   -1.0755448306291627E-9   -1.5182383065345593E-9   3.1315886507611608E-9    3.1029646445026706E-9    3.1256918193718014E-9    3.117426619839865E-9     1.5362455624067515E-9    6.206301470436513E-10
3.9999999999999996E-5     -3.1777438275913366E-9   -3.1470398363905023E-9   -2.1791551941358795E-9   -9.830865466820014E-10   -1.7375153589959165E-9   3.1266893758711633E-9    2.9335494612755863E-9    2.945695144645671E-9     3.054119432137606E-9     1.5564586528272638E-9    7.447690617825625E-10
4.0499999999999995E-5     -3.504113799267321E-9    -3.2765856904771986E-9   -2.083544028322756E-9    -8.33284012565821E-10    -1.929777529262855E-9    3.00351177254229E-9      2.6187480993163196E-9    2.616866413223357E-9     2.8617407202064283E-9    1.518286865805982E-9     8.63723420692184E-10
4.1E-5                    -3.753086382138511E-9    -3.302437867442725E-9    -1.8890624037940906E-9   -6.250163835923059E-10   -2.080868421303347E-9    2.7447177840519753E-9    2.1461054372129755E-9    2.128943312057424E-9     2.525990509197501E-9     1.4127387725936216E-9    9.707288165828327E-10
4.15E-5                   -3.89439741483569E-9     -3.208265355180363E-9    -1.5884414097662303E-9   -3.6091111179825336E-10  -2.176407959179839E-9    2.334510064325495E-9     1.5082625843981551E-9    1.4762168729491996E-9    2.0344471838415537E-9    1.2323032294016596E-9    1.0588994888017966E-9
4.2E-5                    -3.897708837772989E-9    -2.9785843123588588E-9   -1.1767170484801319E-9   -4.419789784405645E-11   -2.2020312205157204E-9   1.7614683794733959E-9    7.03742570880546E-10     6.570875134957357E-10    1.3779015164999895E-9    9.709492142238525E-10    1.1211750603807196E-9
4.2499999999999996E-5     -3.735656227839077E-9    -2.5975425208311355E-9   -6.518143294697671E-10   3.223321596240423E-10    -2.143714166841846E-9    1.0209464875307974E-9    -2.6250788382393254E-10  -3.2500207203608784E-10  5.525306669045515E-10    6.248358128613171E-10    1.14992163997126E-9
4.2999999999999995E-5     -3.386164612169707E-9    -2.0498593634129685E-9   -1.5540955499070748E-11  7.336982301965343E-10    -1.988208094160191E-9    1.1621394515070673E-10   -1.378242541730651E-9    -1.4593634357230054E-9   -4.377865067500466E-10   1.937191154605713E-10    1.1368286023699552E-9
4.35E-5                   -2.8333746147829636E-9   -1.3242224015932048E-9   7.254579490346707E-10    1.1792742791569611E-9    -1.7234645698896763E-9   -9.414534701391494E-10   -2.6228665701836352E-9   -2.7261092406189504E-9   -1.5801962225244679E-9   -3.179678100994138E-10   1.0736116390471213E-9
4.4E-5                    -2.067197179302151E-9    -4.1742357749383436E-10  1.5588087649276084E-9    1.642349208586557E-9     -1.3391781721837004E-9   -2.133203068301103E-9    -3.967055621347686E-9    -4.095704743227895E-9    -2.8530933028823166E-9   -9.012459306817626E-10   9.532033388029602E-10
4.45E-5                   -1.0825134875692525E-9   6.63514135921793E-10     2.4655917354757984E-9    2.103058511725044E-9     -8.277490288209173E-10   -3.433274126034482E-9    -5.373499150980064E-9    -5.530020814578768E-9    -4.226917765310841E-9    -1.5437447989747667E-9   7.705393516002255E-10
4.4999999999999996E-5     1.2041318707353766E-10   1.9023951804378875E-9    3.4201908544726427E-9    2.541537918619357E-9     -1.8572127212336429E-10  -4.80966093067007E-9     -6.798137382775479E-9    -6.983987041965383E-9    -5.664378031029505E-9    -2.2307242165324573E-9   5.225142680802899E-10
4.5499999999999995E-5     1.5334946605107058E-9    3.276337147949692E-9     4.391254205839498E-9     2.9385946776051716E-9    5.846442992929782E-10    -6.2243170287749625E-9   -8.190876491093641E-9    -8.406866664680577E-9    -7.12023579371388E-9     -2.9448295359462687E-9   2.0762138011636472E-10
4.6E-5                    3.13726888991736E-9      4.756844354549254E-9     5.343049608373379E-9     3.274381108511086E-9     1.4741742664776458E-9    -7.63275036378291E-9     -9.495764017277716E-9    -9.742761297162395E-9    -8.541765542168163E-9    -3.6645935583950014E-9   -1.7390851118558882E-10
4.65E-5                   4.89840687858092E-9      6.308516548762524E-9     6.236171787086057E-9     3.5275655540617404E-9    2.466365336669498E-9     -8.983723803872899E-9    -1.0651825700909616E-8   -1.0930905063210924E-8   -9.870341046926783E-9    -4.363062079132616E-9    -6.192052016706758E-10
4.7E-5                    6.769835460976418E-9     7.886994899556123E-9     7.0279175820522134E-9    3.6766825704532543E-9    3.53783838840282E-9      -1.0220143207823288E-8   -1.1595515870483469E-8   -1.1906920425121875E-8   -1.1043397704440907E-8   -5.0081444618791216E-9   -1.1215587219794464E-9
4.7499999999999996E-5     8.69290252039815E-9      9.438391266623296E-9     7.673640898402146E-9     3.7032257090255704E-9    4.659318121674509E-9     -1.1281413412076006E-8   -1.2264189363743753E-8   -1.2605708753317717E-8   -1.1996075954000448E-8   -5.564986564213301E-9    -1.6696955425036242E-9
4.8E-5                    1.0599389924018325E-8    1.0901129194007805E-8    8.129285522051796E-9     3.594626668478656E-9     5.796469680145068E-9     -1.2106391118833427E-8   -1.2599174043809782E-8   -1.2965346719982477E-8   -1.2662969592226477E-8   -5.999041947592957E-9    -2.2480488269153995E-9
4.85E-5                   1.241199556136573E-8     1.220945129252693E-8     8.353800872340911E-9     3.3453192041652634E-9    6.9100470231839465E-9    -1.2635879899308536E-8   -1.2547955110867173E-8   -1.2930622152408794E-8   -1.2980813745050717E-8   -6.27816496816617E-9     -2.837854208972428E-9