% Model:              Untitled.mph
% Version:            COMSOL 6.0.0.405
% Date:               Jul 16 2025, 13:13
% Dimension:          1
% Nodes:              401
% Expressions:        11
% Description:        Point graph
% Time (s)                Displacement field, Y component Displacement field, Y component Displacement field, Y component Displacement field, Y component Displacement field, Y component Displacement field, Y component Displacement field, Y component Displacement field, Y component Displacement field, Y component Displacement field, Y component Displacement field, Y component
0                         7.595136002706315E-32    5.023518438871407E-32    1.652495745923554E-31    8.355625520809034E-31    -5.835633907540984E-32   1.0304891993395712E-31   2.776440148992845E-32    3.94640783179828E-33     -3.152967545317553E-31   -6.758061801250897E-32   -7.428987183803023E-35
5.0E-7                    1.2735779561757857E-22   1.8528675891870326E-23   -1.7606192460271756E-23  -4.8636262849709793E-23  4.617704013930096E-23    -1.1122853776004038E-22  -5.180880118119496E-22   8.462004605614525E-24    -1.155465451830305E-22   5.6463654890322985E-24   -6.893340661292061E-28
1.0E-6                    -1.0194145863222592E-21  -5.963330455384182E-23   -1.0413089474402996E-21  -3.50812613256483E-21    -6.803942347282529E-22   1.4442756187879182E-22   2.0294128653907046E-21   -5.803767515106959E-23   1.2280041574113621E-21   3.310938195265136E-23    1.6862226141259778E-26
1.5E-6                    2.5437274761175794E-21   -5.962016249775992E-22   4.491536070048839E-21    2.6556734079143034E-20   3.2635230483216243E-22   3.7929833243176504E-21   5.2671568742709726E-21   2.1410579598014493E-23   -2.3708975222287298E-21  -1.8186256437199843E-22  1.2104782608557502E-25
2.0E-6                    -1.4973207996399804E-21  1.9264091917657624E-21   -7.513542901619946E-21   -7.433254813886159E-20   8.171268117334751E-21    -6.658414648953415E-21   -1.4388536722282095E-20  3.048586654349654E-22    1.6608055240300426E-21   3.2482325524122054E-22   1.6529345014415446E-25
2.4999999999999998E-6     -6.93355107057598E-21    7.221947643241436E-21    1.0194013846870639E-20   4.976034136121767E-20    -7.363987745063786E-21   -2.3728027061366997E-20  -3.156390092821005E-20   8.44342956236292E-22     -1.910167565872267E-20   -2.27175584357997E-22    -2.278009312880784E-24
3.0E-6                    4.686626586725454E-20    -3.3660237684974693E-20  3.4679932162655466E-20   1.97861289327271E-19     -5.142073312295479E-21   4.004031580667549E-20    1.8553750503036418E-20   -2.4580430700529088E-21  3.403205600350567E-20    9.871884959238891E-22    -6.415254233887716E-24
3.5E-6                    7.399047663005095E-21    -2.4443008799633007E-20  -2.4434007527659976E-19  -6.233575529650711E-19   6.349483199118994E-21    1.2265516412772893E-19   1.0866076556075216E-20   -1.1362492238043894E-20  1.4216002173308118E-19   -3.977425748576596E-21   2.3664608025318356E-23
4.0E-6                    -2.543215926234141E-19   1.9114199141669448E-19   -9.034458941377019E-20   7.426320716559635E-19    -2.983717073652032E-19   -2.0959989114308867E-19  2.1454954041804508E-19   1.2440357629264439E-20   -3.191524264401501E-19   -4.693295861684768E-21   7.866521975938104E-23
4.5E-6                    -2.8674962043075863E-19  1.022850518037932E-19    1.4222329183525582E-18   2.425002341285301E-18    1.4745375412399103E-19   -5.387735740766123E-19   9.109729460267831E-19    8.084463660935306E-20    -5.72323844191133E-19    3.4238842120397554E-20   -1.5834687605287202E-22
4.9999999999999996E-6     4.827803734708444E-19    -6.47760496210034E-19    1.2178321820980765E-18   -6.830174324021917E-18   2.9624101835946656E-18   1.1209683556711488E-18   -9.539053290055374E-19   -6.2149322766530995E-22  1.2360394855592218E-18   7.46209764555898E-21     -6.292559769084952E-22
5.5E-6                    2.0599446643004144E-18   -3.3705690401955113E-19  -4.137014376403533E-18   -1.1696416189420225E-17  5.501460915308912E-19    2.6650909482302985E-18   -5.3016949532789805E-18  -3.7418289564626004E-19  2.379969006302085E-18    -1.4722647292093687E-19  3.0211964594565283E-22
6.0E-6                    1.7533902469631517E-18   2.2600687692274525E-18   -8.899763618480714E-18   2.5396647469645575E-17   -1.697037799788264E-17   -3.5727811208707925E-18  1.4420827339487209E-18   -3.9632332932779454E-19  -2.0639459175633803E-18  -1.6518224921754302E-19  3.540833091949787E-21
6.5E-6                    -5.943814066821436E-18   7.232874166073789E-19    3.6992819090710634E-19   6.689339088689198E-17    -1.3606930431028142E-17  -1.1190003719399333E-17  1.656450754238912E-17    1.0114640832453561E-18   -9.84671493511312E-18    3.04244892245582E-19     2.349231558182771E-21
7.0E-6                    -1.462687417659065E-17   -1.1405116732754804E-17  3.239836280193714E-17    -2.7386003306540457E-17  7.080449071338543E-17    4.102813356470073E-18    -5.202119700802056E-19   2.836067072919501E-18    -9.038617988517332E-18   1.2630903405430958E-18   -1.646095502605152E-20
7.499999999999999E-6      5.053556419855245E-18    -6.3862600603581205E-18  6.213912339867797E-17    -2.624006432258386E-16   1.1833118402704258E-16   3.275917535686527E-17    -3.5901256714958725E-17  3.023201301121954E-19    2.2035318628726347E-17   -6.88574538054836E-20    -3.242623900620137E-20
8.0E-6                    5.67368426060577E-17     5.662977414555213E-17    -8.727817137072576E-18   -1.6058803256588598E-16  -1.4600837278206555E-16  1.9348858108669552E-17   1.4557105194291702E-17   -9.166954531294462E-18   7.185372757947035E-17    -8.16675029663788E-18    3.4882838985352675E-20
8.5E-6                    4.193761419302218E-17    7.475663411130696E-17    -2.4363937896077463E-16  7.713867054701294E-16    -4.703247525677963E-16   -2.9468074337377106E-17  1.1051454165668866E-16   -1.379542381990158E-17   1.0151672679139664E-17   -1.2305316635085125E-17  1.4155131056267307E-19
9.0E-6                    -1.4760743287215607E-16  -1.764248920264436E-16   -3.259879932808267E-16   1.2934853989782027E-15   7.808023892153285E-17    -2.5452194861579787E-17  1.5662185264733026E-18   9.234739262365577E-18    -2.6356741547803086E-16  1.4272833772074054E-17   -6.113771076001431E-20
9.499999999999999E-6      -2.9442865424272896E-16  -4.1576640685728027E-16  3.8003007376371235E-16   -1.1941353767020585E-15  1.3276257899952453E-15   -9.351904245252888E-18   -2.3828543358692584E-16  5.823746636553325E-17    -3.9276316130129407E-16  4.926437760139456E-17    -6.331353048843916E-19
9.999999999999999E-6      2.1098581940834053E-16   3.516603111614641E-16    1.6357509979423185E-15   -4.35680828357111E-15    1.2018992134891985E-15   -1.0495901284585678E-16  -1.2901422380476127E-17  7.113437009872054E-17    2.34870743571409E-16     -2.1616603417626436E-17  -7.405857376856812E-19
1.05E-5                   1.3660333043258732E-15   1.7200555869471438E-15   1.470782556494368E-15    1.6269368367885813E-15   -5.069503117976256E-16   1.109994013252849E-16    7.286698369176475E-16    -4.604465023087237E-17   1.1940808265688814E-15   -2.5671438601044595E-16  -1.4282622555836E-19
1.1E-5                    1.162999823817739E-15    2.1551526033196427E-16   -1.60753056718455E-15    1.6369889027710117E-14   -2.9151128974198854E-16  1.5146593666977969E-15   9.634770648202456E-16    -2.841192734529879E-16   5.637304663206338E-16    -4.04948188238735E-16    -2.3705689404785563E-19
1.15E-5                   -2.742779327151887E-15   -4.719945031375312E-15   -4.887993486132583E-15   1.1859959353860413E-14   1.6022678866115731E-15   3.198351065275402E-15    7.756266618030267E-16    -3.2990795927398867E-16  -2.747956738262144E-15   1.4755943249689794E-17   -1.2351052662894962E-18
1.2E-5                    -6.723160190618668E-15   -2.955924838317152E-15   -2.006496418896286E-15   -2.8805258966867376E-14  8.242046698530799E-17    1.3331980772445528E-15   2.888396188456864E-15    3.900035901560476E-16    -6.161310567958254E-15   8.38754420015513E-16     -5.389547101033484E-18
1.2499999999999999E-5     3.061036025587178E-16    1.2678000506572872E-14   1.1161655262001897E-14   -4.083593390974516E-14   6.2857007254176445E-15   -4.2708212028125605E-15  7.929523883555945E-15    1.8471059821061364E-15   -4.916043767502348E-15   1.0734702234450952E-16   -2.701321831557085E-17
1.3E-5                    2.0197380783333565E-14   1.9038899334652813E-14   3.026605481868153E-14    7.252148912297266E-14    4.9862560119100675E-14   -6.65868555220397E-17    9.348679832084387E-15    2.1106858657333637E-15   9.403288022820265E-16    -4.658774698420453E-15   -6.747696667754713E-17
1.35E-5                   2.6651368492056766E-14   -1.4247353616766013E-14  3.911510328015578E-14    2.3807316283069415E-13   1.1449388294064094E-13   3.32153099469256E-14     4.367245562389214E-15    -1.5641803874071827E-15  7.337102463408599E-16    -1.1030977999887859E-14  -6.499376660436434E-17
1.4E-5                    -8.809686677113106E-15   -4.5874881909568125E-14  1.791837880450778E-14    1.8213538781068254E-13   9.861809266562334E-14    8.627254036190253E-14    1.7172617121040574E-14   -7.0391295251666024E-15  -1.9770857500606054E-14  -9.604504851196815E-15   1.9036163619773977E-17
1.45E-5                   -5.202155253473185E-14   2.1254056569667853E-14   -1.901674364923793E-14   -1.4785512355394965E-13  -3.0738336423276426E-14  1.0615585781103647E-13   9.54179195214231E-14     -3.279643820278804E-15   -6.072486408633549E-14   1.826949039797578E-15    -4.6342349412077406E-17
1.4999999999999999E-5     -1.3173238719685213E-14  1.5595737935094553E-13   2.0140393168900388E-14   -1.7892874450644585E-13  -3.5508137882949634E-15  6.34325304811409E-14     2.5865108289550476E-13   1.9165756348108647E-14   -1.1513869403783195E-13  -3.7637663250264946E-15  -6.993769457488166E-16
1.55E-5                   1.1992952784142127E-13   1.4185315436303454E-13   2.572268147639429E-13    7.946345055011787E-13    6.163087306070816E-13    6.983948700254106E-14    4.553833929582695E-13    4.6722212194685717E-14   -2.209354379376944E-13   -7.410491785774178E-14   -1.896406271598075E-15
1.6E-5                    2.1102409410023456E-13   -7.254961201211602E-14   6.742827062841083E-13    2.447240918012347E-12    1.808419353883603E-12    3.8809691355536686E-13   6.113673398217269E-13    4.3611961375398114E-14   -4.724905626889228E-13   -2.2414657848407303E-13  -2.776131453056592E-15
1.6499999999999998E-5     1.7174545125933215E-13   -7.413897651098367E-14   1.0334286645562795E-12   3.3172038994193603E-12   2.7755510754319963E-12   1.2134935490258894E-12   7.598676971388015E-13    -1.4564203539572381E-15  -8.81935426397208E-13    -4.011661811476285E-13   -3.234530384531137E-15
1.7E-5                    1.9454107795301708E-13   5.251410246981289E-13    1.162000681591102E-12    2.7368683577804185E-12   2.8129287204636655E-12   2.368112236060986E-12    1.1717683201611312E-12   -2.2738895588846216E-14  -1.2608736497733393E-12  -5.486544599227619E-13   -6.848131001127518E-15
1.75E-5                   5.588203238042957E-13    1.2852736599301028E-12   1.4412783426824692E-12   2.8131452350689966E-12   2.7998031912329906E-12   3.3142949754308166E-12   2.4614748093780293E-12   1.0759572500524219E-13   -1.569915265056232E-12   -7.469328375666549E-13   -2.1622977779103533E-14
1.8E-5                    1.1729569542901272E-12   1.3370895180677616E-12   2.8348487280513928E-12   7.33091692018798E-12     5.357484265984569E-12    3.810981594154412E-12    5.629028188929314E-12    4.867271105228644E-13    -2.7150965193385554E-12  -1.3296245158831719E-12  -5.5748845517147493E-14
1.85E-5                   1.6845644525072713E-12   9.643997747997202E-13    6.103736344731014E-12    1.775730493969907E-11    1.2698725612404584E-11   4.919139105351471E-12    1.1738716705378804E-11   1.0786500561592219E-12   -6.711508628622363E-12   -2.931278972272188E-12   -1.1197962434532296E-13
1.8999999999999998E-5     2.313268112702351E-12    1.9596088609169953E-12   1.0942685925098326E-11   3.068558197210132E-11    2.4013065247467212E-11   9.25517080848042E-12     2.09212118945592E-11     1.6767013340694187E-12   -1.5141535188899162E-11  -6.435442426913442E-12   -1.9244081530609014E-13
1.95E-5                   4.183940894856684E-12    5.490447821632383E-12    1.6233812391572027E-11   4.025402402848097E-11    3.5437503313757783E-11   1.9386078991987633E-11   3.125469680342123E-11    2.0207849647178936E-12   -2.6880263662627694E-11  -1.2639632478302278E-11  -3.24978552447886E-13
1.9999999999999998E-5     8.225255073257322E-12    1.0246341957063534E-11   2.1387351895522335E-11   4.350913207562665E-11    4.3198560009144326E-11   3.484595685134472E-11    3.9073857946698786E-11   2.183707417415205E-12    -3.7911592736130306E-11  -2.1526747419828358E-11  -6.043955746738265E-13
2.05E-5                   1.3837386279008235E-11   1.4079106360608671E-11   2.7057618146968523E-11   4.3017753079754233E-11   4.683152956069743E-11    5.0444829599154736E-11   4.1421163863688665E-11   3.083930777557506E-12    -4.4375639914886084E-11  -3.1664837409244646E-11  -1.2184391680294287E-12
2.1E-5                    1.938117826472905E-11    1.7268894244489913E-11   3.3927912845862405E-11   4.382660072620917E-11    4.886043039848903E-11    5.859057118413638E-11    3.861720251431845E-11    6.446829602804889E-12    -4.579193959896421E-11   -4.068248204751894E-11   -2.424021447587888E-12
2.1499999999999997E-5     2.4238723725366122E-11   2.2433651939709886E-11   4.09298759772995E-11     4.7840144698480685E-11   5.101622645468468E-11    5.486033932490663E-11    3.3727530683967536E-11   1.3596030304874559E-11   -4.438325582949188E-11   -4.68299441696949E-11    -4.4564030781659535E-12
2.2E-5                    2.970154256342987E-11    3.067810263391564E-11    4.5670942323454545E-11   5.1176965953074623E-11   5.113015863162317E-11    4.201262075664215E-11    2.883967401163104E-11    2.3752658889841193E-11   -4.113759319522977E-11   -5.001216860852284E-11   -7.377168085550374E-12
2.2499999999999998E-5     3.711819014298831E-11    3.9436021906081467E-11   4.717999164167414E-11    4.687894851966229E-11    4.44684161609044E-11     2.8053943462131686E-11   2.2373033939436772E-11   3.375862587824605E-11    -3.387056083245039E-11   -5.0805408588603974E-11  -1.09143650655884E-11
2.3E-5                    4.5368466763505574E-11   4.52531791637123E-11     4.730466184307447E-11    3.02748818463561E-11     2.8284872566929752E-11   1.949702092967816E-11    1.0901622104453717E-11   4.014911965630809E-11    -2.0116296048506632E-11  -4.8451401712110496E-11  -1.4433971088944339E-11
2.35E-5                   5.0891266246550234E-11   4.749626535333997E-11    4.799743653067777E-11    2.2089401206870182E-12   4.291171427033239E-12    1.5771421835731848E-11   -6.825823147775563E-12   4.172831217619948E-11    -8.851532891278464E-13   -4.0539603808819316E-11  -1.7186220708985763E-11
2.4E-5                    5.048948373928556E-11    4.781986716565153E-11    4.719593086767794E-11    -3.2404309030217824E-11  -2.4062510902814722E-11  9.367045632867525E-12    -2.9031216936788092E-11  3.978477642752518E-11    2.0188477471916456E-11   -2.518119446245302E-11   -1.873717220678798E-11
2.45E-5                   4.3843953266022036E-11   4.674677050362915E-11    3.866185765840058E-11    -6.91104404337508E-11    -5.620740801968539E-11   -9.32032125963266E-12    -5.414971677515879E-11   3.571474807550767E-11    4.1514929508858354E-11   -3.0799329342500177E-12  -1.9190936184615353E-11
2.4999999999999998E-5     3.3109202967575E-11      4.257552467103588E-11    1.6615629318549917E-11   -1.0750371114745666E-10  -9.515759695597856E-11   -4.663228683916668E-11   -8.329900820075948E-11   2.8974788766315434E-11   6.600237644459436E-11    2.3268620565807345E-11   -1.889816782812731E-11
2.55E-5                   2.0227917391828225E-11   3.3537359718944884E-11   -1.9894638786780563E-11  -1.5087890125724671E-10  -1.434062389410759E-10   -1.0240190606589902E-10  -1.1839281017159E-10     1.773299752948435E-11    9.829170116286528E-11    5.25012173035671E-11     -1.790603462457258E-11
2.6E-5                    4.709393983844043E-12    1.918400626330362E-11    -6.722019416741497E-11   -2.0241718565081904E-10  -1.991381476293024E-10   -1.6926098395342582E-10  -1.587089500439305E-10   1.087025046803326E-12    1.4028569431982046E-10   8.613443875901935E-11    -1.5754653401670215E-11
2.65E-5                   -1.6306120171151187E-11  -1.051278061988074E-12   -1.2049529376743603E-10  -2.61431739052965E-10    -2.5717767821723464E-10  -2.350719257355161E-10   -2.00687547170873E-10    -2.000836269485869E-11   1.8955017078920376E-10   1.273418503234326E-10    -1.1798967938215724E-11
2.7E-5                    -4.614494392083234E-11   -2.936877498272548E-11   -1.762516812253828E-10   -3.2324667420689806E-10  -3.132340248740861E-10   -2.887970792669339E-10   -2.407289678636884E-10   -4.3939386094799344E-11  2.408007777807987E-10    1.7808008766049943E-10   -5.556593449246799E-12
2.7499999999999998E-5     -8.655446089664127E-11   -6.85477002099397E-11    -2.333243160203295E-10   -3.829535420378812E-10   -3.6679156197458874E-10  -3.2704412519940684E-10  -2.767753590001503E-10   -6.995235410507203E-11   2.8804695935795503E-10   2.369143518852992E-10    3.3665834673507676E-12
2.8E-5                    -1.3687115392136128E-10  -1.1967049325987777E-10  -2.9334268909686397E-10  -4.393136011891203E-10   -4.202110142252389E-10   -3.5610067086788966E-10  -3.072437731454345E-10   -9.82713267870289E-11    3.2647316945196624E-10   2.988417869582276E-10    1.550246652304156E-11
2.8499999999999998E-5     -1.9467773426411354E-10  -1.8126302764998958E-10  -3.6014987076261444E-10  -4.945099256780345E-10   -4.751542719380489E-10   -3.869999940379469E-10   -3.3027875862246296E-10  -1.291850326830324E-10   3.5434249613574673E-10   3.5722645075148896E-10   3.133570583909189E-11
2.9E-5                    -2.572597619869869E-10   -2.501040048813974E-10   -4.36285180571017E-10    -5.494865757522896E-10   -5.290214960206774E-10   -4.2703334269249503E-10  -3.451162306076296E-10   -1.6264386624439766E-10  3.737973007167598E-10    4.0690897928499045E-10   5.07609374099863E-11
2.95E-5                   -3.2278026319936164E-10  -3.225625239791663E-10   -5.183234675157836E-10   -5.993361800969715E-10   -5.740829291473682E-10   -4.738748619495347E-10   -3.529591960351142E-10   -1.9894623859213459E-10  3.8884418750071553E-10   4.4635821821918455E-10   7.28858926703093E-11
2.9999999999999997E-5     -3.904324244643425E-10   -3.9626120174556746E-10  -5.964408654564247E-10   -6.334071236220631E-10   -6.004834065435382E-10   -5.158784629076217E-10   -3.547347262454037E-10   -2.3936094323534133E-10  4.0128747056830655E-10   4.768720520639077E-10    9.661180447513827E-11
3.05E-5                   -4.5961895180957255E-10  -4.717788653112117E-10   -6.601468328659686E-10   -6.401689461131545E-10   -6.009423453155406E-10   -5.375776860952695E-10   -3.4767424929033317E-10  -2.8510688127428127E-10  4.077148385985377E-10    4.992709105363081E-10    1.2150747970329168E-10
3.1E-5                    -5.288016232466296E-10   -5.522703421504349E-10   -7.045746303392502E-10   -6.124444173676682E-10   -5.727189562246197E-10   -5.265537823052264E-10   -3.2473064772928993E-10  -3.3478702722693086E-10  3.9967154316261285E-10   5.108975948568644E-10    1.4802252517041464E-10
3.15E-5                   -5.946837798821782E-10   -6.39226735658602E-10    -7.302095431683945E-10   -5.487421816713389E-10   -5.149310445664346E-10   -4.774370726441419E-10   -2.776520687873951E-10   -3.826300437794915E-10   3.6660848596463333E-10   5.052241122358547E-10    1.7662952210867097E-10
3.2E-5                    -6.520262696465073E-10   -7.267915297770266E-10   -7.364708623162455E-10   -4.502140581972502E-10   -4.243687277043229E-10   -3.9075017113510377E-10  -2.0110018790934924E-10  -4.199441021316696E-10   2.999962599781399E-10    4.739359407059249E-10    2.0655226261717494E-10
3.25E-5                   -6.940424437721038E-10   -8.003933709658768E-10   -7.168429623840993E-10   -3.1623186526423766E-10  -2.9433619559643315E-10  -2.6805828045112894E-10  -9.519466300445511E-11   -4.392286046372381E-10   1.968143756712246E-10    4.099565509505303E-10    2.3528671078786094E-10
3.2999999999999996E-5     -7.131530636952742E-10   -8.427158920226333E-10   -6.609573461105244E-10   -1.4219787227789497E-10  -1.1749059986636735E-10  -1.0793385632305271E-10  3.493850932824626E-11    -4.3740515636175944E-10  6.029199002214886E-11    3.099159418503018E-10    2.5949812729441446E-10
3.35E-5                   -7.018864964411579E-10   -8.429138880149184E-10   -5.604566138190858E-10   7.882405403724062E-11    1.1002113404154911E-10   9.354980423960321E-11    1.8315946614926953E-10   -4.1526279622319867E-10  -1.0325552653464239E-10  1.7468375017758388E-10   2.765343463984785E-10
3.4E-5                    -6.537379293312842E-10   -8.009852403952176E-10   -4.1167698316635196E-10  3.5204602768927834E-10   3.862433877103005E-10    3.384333049313647E-10    3.477565648108491E-10    -3.739791786505126E-10   -2.8934364484921326E-10  7.20611066863748E-12     2.8508908972801223E-10
3.45E-5                   -5.636932380019548E-10   -7.230728411143278E-10   -2.1303097499293183E-10  6.775696482046848E-10    7.04449405339431E-10     6.229874452455182E-10    5.330057882819232E-10    -3.1218658396538996E-10  -4.974186635592623E-10   -1.909033331128222E-10   2.843804543756577E-10
3.5E-5                    -4.2802233156770007E-10  -6.116431235059802E-10   3.8796434353123844E-11   1.0497642470834832E-9    1.0569134674411947E-9    9.381700207055534E-10    7.434802165274399E-10    -2.258523910650359E-10   -7.278904075916508E-10   -4.207015401321815E-10   2.727910686197952E-10
3.5499999999999996E-5     -2.433042984555596E-10   -4.588669157720616E-10   3.494232587843335E-10    1.4587830083415924E-9    1.4382160275028525E-9    1.273917562387923E-9     9.753476230966051E-10    -1.1031116607010306E-10  -9.770778140680669E-10   -6.834730918843183E-10   2.474462799418859E-10
3.6E-5                    -5.482485913764166E-12   -2.4820681763225434E-10  7.238307433725324E-10    1.8921281143173247E-9    1.8441796384170776E-9    1.6227506108380045E-9    1.2132478578944522E-9    3.74579028209612E-11     -1.2351371074228089E-9   -9.767256260846615E-10   2.050414185051891E-10
3.65E-5                   2.898118012953149E-10    3.779038582141796E-11    1.1623844881458927E-9    2.335256705706872E-9     2.2664112613232487E-9    1.978431390822068E-9     1.4360822509098401E-9    2.174584886967686E-10    -1.4885729529077817E-9   -1.292260747248033E-9    1.428298245853979E-10
3.7E-5                    6.452168847735739E-10    4.093838808745546E-10    1.6580171320914714E-9    2.771816094132166E-9     2.6877361236588404E-9    2.330145186015367E-9     1.6261286355055164E-9    4.265943870250834E-10    -1.7241783161404676E-9   -1.6172025848424593E-9   5.880195408438396E-11
3.75E-5                   1.0589388957315809E-9    8.655576895398955E-10    2.1957863918383268E-9    3.1839910459311753E-9    3.0835272511368385E-9    2.657659723993935E-9     1.7735614814452508E-9    6.599936663007572E-10    -1.93052592087084E-9     -1.9359135603688377E-9   -4.858996441020317E-11
3.7999999999999995E-5     1.523161147275609E-9     1.3945504964175826E-9    2.755247655667406E-9     3.552431567167426E-9     3.4274582407441438E-9    2.9329240915441556E-9    1.874042814803875E-9     9.129638094339991E-10    -2.0965059449688242E-9   -2.23122198130382E-9     -1.802166478343836E-10
3.85E-5                   2.0244841089794104E-9    1.977366446070505E-9     3.3144242346682643E-9    3.855440076402379E-9     3.695592184884139E-9     3.1277033870885197E-9    1.923331877384482E-9     1.1817179675793802E-9    -2.2094582151259092E-9   -2.4855579582118343E-9   -3.355342191816486E-10
3.9E-5                    2.5457720752147057E-9    2.5924476589636924E-9    3.852269148762143E-9     4.068389047469639E-9     3.865655988453053E-9     3.2205290013254113E-9    1.9140616228991544E-9    1.4617931224246999E-9    -2.255066801866834E-9    -2.6826403640611364E-9   -5.122111844372292E-10
3.95E-5                   3.0679673485846664E-9    3.2197845522699073E-9    4.347045145392872E-9     4.164583528660368E-9     3.914318190336469E-9     3.196454034447859E-9     1.8364104613431979E-9    1.7455466875592627E-9    -2.2187761173527534E-9   -2.808485001502365E-9    -7.064918570245171E-10
3.9999999999999996E-5     3.570813970647563E-9     3.842421829615502E-9     4.771610856360972E-9     4.117361034273893E-9     3.816644743232212E-9     3.040547893475647E-9     1.6804165388782543E-9    2.0210874389769673E-9    -2.0873336811449817E-9   -2.8502398642256386E-9   -9.135603962458083E-10
4.0499999999999995E-5     4.032383224516056E-9     4.44390167019099E-9      5.090096601974999E-9     3.9020786516115515E-9    3.5483496934318348E-9    2.733113307221574E-9     1.4370315817196133E-9    2.273005770139905E-9     -1.849951876008455E-9    -2.7937394406862992E-9   -1.1272180437999655E-9
4.1E-5                    4.428040118185405E-9     5.002745904924393E-9     5.260372402075169E-9     3.4973386633467005E-9    3.08868884798734E-9      2.253088053658697E-9     1.0981765019795064E-9    2.4832440075607727E-9    -1.4994754352333242E-9   -2.622565951263529E-9    -1.3393014783915302E-9
4.15E-5                   4.729742485022851E-9     5.487953473117281E-9     5.242609546359857E-9     2.8861841444623907E-9    2.4226500099121025E-9    1.5871705946772572E-9    6.586608740415515E-10    2.6313748610243754E-9    -1.0335180745202013E-9   -2.3201554893250053E-9   -1.5397584288744739E-9
4.2E-5                    4.9063467431624174E-9    5.85929900731452E-9      5.008857940411297E-9     2.0579115588366978E-9    1.542787661690686E-9     7.35935615083213E-10     1.204516955094332E-10    2.695813263516684E-9     -4.549645110320869E-10   -1.873597477312043E-9    -1.7175039689375568E-9
4.2499999999999996E-5     4.925022264053122E-9     6.072183948973147E-9     4.546077054661865E-9     1.0097415887566738E-9    4.50910087573626E-10     -2.8818318464153565E-10  -5.047904910988668E-10   2.6573264592956416E-9    2.2820626032105578E-10   -1.2765650102442497E-9   -1.8612873567565036E-9
4.2999999999999995E-5     4.75328898020757E-9      6.082868807472094E-9     3.848765246676873E-9     -2.527937353124815E-10   -8.41202157998613E-10    -1.467130285267628E-9    -1.198393266336385E-9    2.503369461794491E-9     1.0030275636927815E-9    -5.301683619586925E-10   -1.9599073071011066E-9
4.35E-5                   4.361085779409751E-9     5.850632829096962E-9     2.9061820464631037E-9    -1.7162663146588944E-9   -2.312582816672709E-9    -2.779953172547086E-9    -1.939803787552859E-9    2.229765947661064E-9     1.851208440341069E-9     3.5746592687446225E-10   -2.001917610706775E-9
4.4E-5                    3.722712182942229E-9     5.337886509011334E-9     1.695955190705153E-9     -3.358704573447841E-9    -3.934339344882642E-9    -4.199452250081299E-9    -2.70810233469626E-9     1.837670262094201E-9     2.7489075220570872E-9    1.3713676276010891E-9    -1.9755331106401775E-9
4.45E-5                   2.8188354557706133E-9    4.511822247818555E-9     1.9256006544208268E-10   -5.147307889043872E-9    -5.6696005141065005E-9   -5.687301501040414E-9    -3.4785862098712257E-9   1.3275004227985491E-9    3.667052674842081E-9     2.488964073115685E-9     -1.86926703685408E-9
4.4999999999999996E-5     1.6385142741237916E-9    3.3485992674492703E-9    -1.6133947660558768E-9   -7.036617953590381E-9    -7.471778142618097E-9    -7.19287723831455E-9     -4.2194237776842295E-9   6.944232319271108E-10    4.571709182102469E-9     3.6790858093751127E-9    -1.6730210179895767E-9
4.5499999999999995E-5     1.8081981661864262E-10   1.836892581123125E-9     -3.6993933466066857E-9   -8.969560302840332E-9    -9.283016635053603E-9    -8.655766592298083E-9    -4.892898087522344E-9    -7.052099014752905E-11   5.424025940815413E-9     4.902000527598915E-9     -1.3786927790881369E-9
4.6E-5                    -1.5440813268408616E-9   -2.2307027850297785E-11  -6.010424984816712E-9    -1.0880844948403579E-8   -1.103505379393108E-8    -1.000821209802346E-8    -5.460256203338461E-9    -9.734494816889857E-10   6.180578112590898E-9     6.110878644431357E-9     -9.798728520424418E-10
4.65E-5                   -3.5138691443515125E-9   -2.2180108433554316E-9   -8.472323132271049E-9    -1.2699697838822821E-8   -1.2652456168258404E-8   -1.117596832530093E-8    -5.886347066358343E-9    -2.0089909326187524E-9   6.795514438890781E-9     7.253787825292027E-9     -4.716427459917457E-10
4.7E-5                    -5.692655111717264E-9    -4.7283891436283785E-9   -1.10073664300692E-8     -1.4350177470345868E-8   -1.4055999088342838E-8   -1.2080324756068488E-8   -6.142069940650994E-9    -3.155253145143166E-9    7.224485487977367E-9     8.275294323359148E-9     1.4804098308504848E-10
4.7499999999999996E-5     -8.029861431950593E-9    -7.514156800419145E-9    -1.3541275776828119E-8   -1.5750838913914998E-8   -1.5164650673272736E-8   -1.2644009378776462E-8   -6.204935989869805E-9    -4.3746807974612895E-9   7.428449505823456E-9     9.118118919706155E-9     8.755704430859832E-10
4.8E-5                    -1.0460499211027326E-8   -1.0510638526524464E-8   -1.5999493738386286E-8   -1.6816775496695523E-8   -1.5897240884584704E-8   -1.2799010307854056E-8   -6.0584247509780965E-9   -5.619010112694028E-9    7.375653086744964E-9     9.726025240505895E-9     1.6997415098680943E-9
4.85E-5                   -1.2906841189414436E-8   -1.3626580492745734E-8   -1.8298371359214634E-8   -1.7464664166236115E-8   -1.6175935224615722E-8   -1.2491175047168964E-8   -5.690918522861088E-9    -6.835030517763298E-9    7.042275018788891E-9     1.0047890071460866E-8    2.6024360508401024E-9