% Model:              Untitled.mph
% Version:            COMSOL 6.0.0.405
% Date:               Jul 16 2025, 16:55
% Dimension:          1
% Nodes:              401
% Expressions:        11
% Description:        Point graph
% Time (s)                Displacement field, Y component Displacement field, Y component Displacement field, Y component Displacement field, Y component Displacement field, Y component Displacement field, Y component Displacement field, Y component Displacement field, Y component Displacement field, Y component Displacement field, Y component Displacement field, Y component
0                         -4.99824383355252E-33    -2.1887419544782088E-32  1.1833962986021943E-31   4.272611507820781E-33    1.0717722788646248E-32   7.562024275622874E-33    1.7806013451005292E-33   1.2677716737573168E-33   5.654827592062757E-34    -1.7918467271776168E-35  1.5845526137394803E-37
5.0E-7                    -1.9661940774502854E-24  2.619773723133023E-24    -9.291321482477874E-25   -1.471663786947354E-24   3.922808329081488E-24    3.3847810798766176E-24   2.4246369016237275E-24   1.0825292915776194E-24   1.1128503728639882E-24   3.8593358095965964E-27   -1.357762045090081E-26
1.0E-6                    -5.47866295130001E-23    1.036216697476093E-23    -7.985144458483498E-24   3.328201813777635E-23    2.3299401551887402E-23   -1.1109447287352232E-22  -1.8451175097697123E-23  -8.863571678845676E-24   -7.063353269611423E-24   -3.358110444342625E-26   1.277050783346246E-25
1.5E-6                    -1.0561778806991019E-22  1.5690813859560463E-22   -1.0367051505917653E-22  -9.81200843271523E-23    5.34032336845312E-23     2.6680868527370783E-22   3.5050141941571184E-23   3.967395657479235E-23    1.370121067760372E-23    2.148793462045948E-25    -2.4691402174089937E-25
2.0E-6                    -4.488416919017804E-22   4.80321448277755E-22     -1.0325634758056715E-21  -4.1669334800155765E-23  -5.215881974637115E-22   1.1902395311497788E-23   -2.451265435282522E-23   -1.081563682833319E-22   1.0300790316682322E-24   -3.9480370701472777E-25  -4.695755185691396E-25
2.4999999999999998E-6     9.666585466676585E-23    -3.7687776788790707E-22  2.4033677167203077E-21   1.0202967386588197E-21   -5.759512677646381E-22   1.7449686785790062E-21   2.145871571731478E-22    3.721067764817549E-23    -3.595189251091885E-23   -6.923151887482909E-25   1.2946508625341137E-24
3.0E-6                    6.063299774840419E-21    -1.749476176803333E-21   -1.3623216143380913E-21  2.797662935929959E-22    3.5964145215345936E-21   -3.9519546750109224E-21  -1.7649781803199547E-22  5.594345018911635E-22    2.3177557981242743E-23   -1.6465006912474843E-24  3.0552112723983343E-24
3.5E-6                    1.372581105607024E-20    3.397555934844495E-21    -2.012843568963165E-20   -6.999658528043413E-21   8.417097976597153E-21    -2.0756563015827963E-20  -2.6437729905954404E-21  -6.517114253064976E-22   2.206604439482017E-22    2.095330980114945E-23    -8.172356143596605E-24
4.0E-6                    -4.550453504862922E-21   3.3378458485498184E-21   2.977265184611716E-20    -1.1647247534948316E-20  -7.071271453631091E-21   3.615088277521118E-20    2.3035962704233507E-21   -2.176934922348377E-21   -1.194083808170108E-22   2.6871692582560534E-23   -2.409447647552828E-23
4.5E-6                    -7.037678656700531E-20   -1.9582656836451686E-20  1.1145200291307254E-19   3.8644592489416817E-20   -6.321798374209807E-20   1.4244236383773683E-19   1.6150500610398152E-20   2.384293933858498E-21    -2.4756645470062938E-21  -1.751477702179071E-22   5.299687181829364E-23
4.9999999999999996E-6     -1.061305881116716E-19   6.697019604226593E-20    -2.398218172593613E-19   1.0549878049364994E-19   -7.7292480080255E-20     -8.525673548955629E-20   -4.20697759894584E-21    1.246052282366473E-20    -5.460793887794957E-22   -4.886362164592707E-22   1.9255710700689028E-22
5.5E-6                    2.243540451011674E-20    2.659936016704808E-19    -5.863293288657046E-19   8.41652655097081E-21     2.1653498291648117E-19   -7.512604429749759E-19   -8.369052801646737E-20   -5.8512867723053216E-21  1.8217696838566203E-20   4.771628961397879E-22    -1.7281291634531412E-22
6.0E-6                    2.689918310109711E-19    -3.437981497961035E-19   1.0221272178413192E-18   -3.0585708286608956E-19  8.213792319437932E-19    -3.248989890690515E-19   -5.061021331582914E-20   -7.083140054995969E-20   2.279020090716928E-20    4.656145427580673E-21    -1.3105384341538075E-21
6.5E-6                    7.621713873579781E-19    -1.3336391517736831E-18  3.199565313040516E-18    -1.2346612596124742E-18  6.109864532779116E-19    3.228045869799558E-18    3.3503802749572035E-19   -1.2342566549154962E-20  -7.909109452150828E-20   4.721110394720483E-21    -5.956248038816472E-22
7.0E-6                    2.0001704401469835E-18   2.9132853706416746E-18   -5.8456074840867405E-19  -9.62523282310489E-19    -2.282449349551237E-18   5.2284035588329055E-18   5.1534331060845735E-19   3.367826971067509E-19    -2.238273422697262E-19   -2.2762834193345654E-20  6.182850406415541E-21
7.499999999999999E-6      9.580831210376937E-19    1.0869729441015793E-17   -1.0979752227378851E-17  8.050770671551597E-18    -6.8785728685562464E-18  -6.6137943095039024E-18  -8.457213274840573E-19   3.4156265316432566E-19   8.356650151126992E-20    -6.284104364103516E-20   1.094485585920867E-20
8.0E-6                    -8.634147287530594E-18   -2.1268289872479127E-18  -1.0143769294183757E-17  1.7155386776159586E-17   -3.2637689157006454E-18  -2.5313523048307222E-17  -2.67972616400194E-18    -1.0933408915774332E-18  1.1511375675847403E-18   2.710238733306405E-20    -1.543820324604071E-20
8.5E-6                    -1.3433549017420233E-17  -3.5890498055502136E-17  2.2465095352781943E-17   -1.7325871129788192E-17  2.3176511974177147E-17   -5.2733064621277095E-18  1.293511249923836E-19    -2.4121127097696045E-18  1.3266071797551354E-18   3.36943097203975E-19     -6.974116887173335E-20
9.0E-6                    1.9095566789613666E-17   -1.0800806799481725E-17  4.920165886441627E-17    -8.430778633238548E-17   5.573691178400755E-17    7.378183428225626E-17    8.638487065423192E-18    1.7231251846015192E-18   -2.707014976130403E-18   3.445515196486632E-19    -2.5391411284331807E-20
9.499999999999999E-6      5.14330174420202E-17     9.306468314299506E-17    -1.0498610667728107E-17  -2.4792270861429205E-17  1.371888157791515E-17    1.177781765503344E-16    1.0329781044425072E-17   1.0935453584856001E-17   -9.04374309843949E-18    -8.830836481387021E-19   2.4878927145182925E-19
9.999999999999999E-6      -1.1854821356573136E-17  9.31549734336633E-17     -5.003576790261382E-17   2.4606374740759487E-16   -1.5258856856295392E-16  -1.6600454806791034E-17  -1.1133383291166295E-17  7.127699173208614E-18    -3.216823986636491E-18   -2.442277435774199E-18   4.328201504404801E-19
1.05E-5                   -1.5171122468972686E-17  -5.853142094521082E-17   2.3679214916222026E-16   3.8556927457585346E-16   -2.462913971144494E-16   -3.0672474210632495E-16  -4.759127607076134E-17   -2.6667843818462317E-17  2.6972283434342593E-17   -1.8444349676304077E-19  -3.121875869035214E-19
1.1E-5                    3.893275584735696E-16    3.8826776785998736E-17   6.319940741861012E-16    -1.0847388704031748E-16  1.2737922738806466E-16   -4.063321780800084E-16   -4.2334410752766836E-17  -5.205614920932358E-17   4.951916983838182E-17    7.457599241991957E-18    -1.9359992515530876E-18
1.15E-5                   7.051364693339011E-16    5.313003223352133E-16    1.9818830701083946E-16   -9.050731057947468E-16   9.29698923265405E-16     2.555881588925818E-16    8.67630926049409E-17     2.25018589732236E-17     -1.376560833535271E-17   9.869230922449095E-18    -1.7070689907219645E-18
1.2E-5                    -4.634115374949184E-16   6.531765530764127E-16    -7.699746699711699E-16   -3.487469595544121E-16   1.1454636667568759E-15   1.785623115297549E-15    2.928773882001131E-16    1.8778414452521328E-16   -1.6435731589056836E-16  -8.331192979964552E-18   3.723308287099257E-18
1.2499999999999999E-5     -2.345422084825157E-15   -1.4114023714960635E-16  4.797820791036761E-16    2.6983616935250853E-15   -3.2360186421346326E-16  2.6433738727541247E-15   1.9730171275604498E-16   1.8460532259790063E-16   -1.8519368440303258E-16  -3.516252616995325E-17   1.0720217481670183E-17
1.3E-5                    -2.601168044740445E-16   -5.511784187671362E-16   5.7280923571776244E-15   4.998358695482878E-15    -2.45443270617064E-15    7.00601343229303E-17     -6.123972049360618E-16   -2.481285739383661E-16   1.9029320075370418E-16   -2.089355386051286E-17   4.8867935969807395E-18
1.35E-5                   8.260545685442969E-15    3.715226310353601E-15    1.3501523885495621E-14   1.4055564212266225E-16   -1.4979465488381127E-15  -5.552342313961181E-15   -1.4827946318956323E-15  -7.3398497799647665E-16  7.445642818208561E-16    5.4857277184819564E-17   -2.329870103079187E-17
1.4E-5                    1.677896217197714E-14    2.036491846341683E-14    2.5159857378607036E-14   -7.514749269995145E-15   5.055115356111811E-15    -6.15768662079419E-15    -3.011008139701538E-16   -1.781731039284244E-16   5.862065608979218E-16    1.0340656880610164E-16   -4.832284697914615E-17
1.45E-5                   1.7795952364920072E-14   4.876021082843061E-14    4.4883506156445204E-14   7.5593413503573E-15      1.271579772785085E-14    9.080292956973281E-15    3.842791762685688E-15    1.7992562051758015E-15   -8.925160456492263E-16   9.792771271210337E-18    -1.0267597949350096E-17
1.4999999999999999E-5     1.569087029271438E-14    5.353695689290841E-14    5.949703297751211E-14    6.121969734091142E-14    1.2537558036421554E-14   3.7592069680782595E-14   6.577444593480377E-15    3.1009997123028354E-15   -2.5108145657233025E-15  -1.360350791355299E-16   1.09624706393285E-16
1.55E-5                   1.839548460005976E-14    -1.18588675075453E-14    4.410000068686526E-14    1.033889589712922E-13    6.884666151265118E-15    5.34353123460948E-14     1.0242437542171116E-16   5.002543592676839E-16    -1.3850785154741004E-15  -4.708707765549409E-17   1.9197171447788472E-16
1.6E-5                    2.756902556674469E-14    -6.601614720492386E-14   5.524578460481165E-14    4.805155503558568E-14    1.901285805744517E-14    2.7555492327559438E-14   -1.4982287816706674E-14  -4.763293623101137E-15   3.983903083479949E-15    2.792993361789003E-16    2.778795599050168E-17
1.6499999999999998E-5     8.129842307998217E-14    1.897426136245786E-13    3.166256468585356E-13    -5.685434688550745E-14   6.632415492217138E-14    -2.228756802472576E-14   -1.932995849551048E-14   -3.505637128161298E-15   9.649924434751238E-15    2.778385196390133E-16    -4.016618556847417E-16
1.7E-5                    3.008705205447761E-13    9.697401040458578E-13    1.0507387280880762E-12   7.602035697733488E-14    1.1913588590901562E-13   1.789187638402985E-15    1.2109649165188321E-14   1.306444267366331E-14    6.918462688054836E-15    -3.045477000390516E-16   -6.616022497226094E-16
1.75E-5                   7.840440065880956E-13    1.8476686801070208E-12   2.060825914469346E-12    7.284943546037321E-13    1.3600070003875524E-13   2.2624937137723375E-13   7.09408066678415E-14     3.6404038446908995E-14   -7.578829721804064E-15   -1.1729871642134403E-16  -9.58415565334413E-17
1.8E-5                    1.3775006372236325E-12   1.8818404373857294E-12   2.6333357537067576E-12   1.7235907253340064E-12   1.9811326445257106E-13   6.638587018083398E-13    9.268386366083958E-14    4.0168124083996784E-14   -1.8957618136331366E-14  2.8538566899167984E-15   1.3343008347131115E-15
1.85E-5                   1.722112057431724E-12    9.681678545578347E-13    2.3585809666468E-12      2.4042101684870933E-12   5.527202991666034E-13    1.1158993794807554E-12   1.1416393669916855E-14   1.6839540679725045E-14   8.373719255197335E-16    7.562753898620018E-15    2.36741662087919E-15
1.8999999999999998E-5     1.835931411615959E-12    1.06036506079391E-12     2.40014791254794E-12     2.4012834383494826E-12   1.3534754846176635E-12   1.3189444424197607E-12   -1.1942679478124736E-13  2.0049980539181375E-14   5.857656573131105E-14    8.389478604323597E-15    1.1051827327537279E-15
1.95E-5                   2.7195050971343854E-12   5.053055607328145E-12    5.5933410197166664E-12   2.5468505534418962E-12   2.310117755654843E-12    1.3420702618365483E-12   -8.036941411789731E-14   1.375669942816456E-13    1.1077307772291422E-13   1.627864465398848E-15    -2.7768448137522957E-15
1.9999999999999998E-5     6.048645982231079E-12    1.3641223539487612E-11   1.4348583317070677E-11   4.808675636912323E-12    2.8699205620120938E-12   1.886520375806003E-12    3.3480476631535606E-13   3.8361229081393507E-13   1.0284182754549682E-13   -3.7415833221422154E-15  -6.082806246778043E-15
2.05E-5                   1.2889974512835922E-11   2.379056995665328E-11    2.7763013985463216E-11   1.1001676035890068E-11   3.1360115026184497E-12   4.05232368590526E-12     1.0060668160895395E-12   6.456378699872153E-13    6.809279024558108E-14    1.4937333533143733E-14   -3.248004464487333E-15
2.1E-5                    2.2685613806129508E-11   3.143322212605982E-11    4.0982229216781444E-11   2.1377131468391267E-11   4.638605797489126E-12    8.577172904426952E-12    1.439386195742439E-12    8.350191266632105E-13    1.5726306607348248E-13   7.657989870599121E-14    8.536531627796986E-15
2.1499999999999997E-5     3.367114506458898E-11    3.575638299272534E-11    4.820158624025461E-11    3.438040791780798E-11    9.718121569684565E-12    1.514682882955884E-11    1.2815418854369624E-12   1.1393314781866757E-12   4.973147335666757E-13    1.7330740086619841E-13   2.3798281071922153E-14
2.2E-5                    4.426348547112304E-11    3.978322521172914E-11    4.6949533031515464E-11   4.7612054375276005E-11   1.9533878381405732E-11   2.2423686448142555E-11   1.0459105892220905E-12   2.0288671167843403E-12   1.0202068977583914E-12   2.698090057001453E-13    2.958061651294359E-14
2.2499999999999998E-5     5.38469318110988E-11     4.6187170262771524E-11   3.9619802922386804E-11   5.876417318845022E-11    3.238960762755343E-11    2.8787870713233808E-11   2.1656530737509192E-12   3.87038964639994E-12     1.554074284214253E-12    3.430562036627058E-13    1.643718432967151E-14
2.3E-5                    6.225823950207653E-11    5.332714966729969E-11    3.0824095213300504E-11   6.54991983968808E-11     4.4146238673294837E-11   3.312097040679889E-11    5.944139209405502E-12    6.540587274920449E-12    2.190564482572486E-12    4.4916289232452555E-13   -6.124510419644089E-15
2.35E-5                   6.886169329586598E-11    5.629247893325271E-11    2.3295301192437477E-11   6.472162340877955E-11    5.070621193615682E-11    3.50148595201451E-11     1.2212828620741325E-11   9.563354171156176E-12    3.4711756511943887E-12   7.705232494661355E-13    -4.748895374729212E-15
2.4E-5                    7.22820522462574E-11     5.15282675161624E-11     1.622261289152701E-11    5.2814570658010905E-11   5.0701921008569863E-11   3.44145404308488E-11     1.9108068716751098E-11   1.2645307908760127E-11   5.9788039733748755E-12   1.5814517563197371E-12   6.04361728978999E-14
2.45E-5                   7.070599049487093E-11    3.951473540845831E-11    7.009513110645446E-12    2.772110811808964E-11    4.624291411178636E-11    3.112771252538365E-11    2.4366638265601478E-11   1.5842898748196657E-11   9.648700703025712E-12    3.1056299888591486E-12   2.0504771574233082E-13
2.4999999999999998E-5     6.210222210622593E-11    2.284730022100508E-11    -6.076062178886058E-12   -8.402891741864049E-12   4.0879300232721154E-11   2.4520769665004588E-11   2.6908560691227207E-11   1.8998350962958953E-11   1.363707834216839E-11    5.340382959501779E-12    4.0721029109194553E-13
2.55E-5                   4.4427195512092226E-11   2.570015321055172E-12    -2.336182050011219E-11   -4.869643977961496E-11   3.592053130317056E-11    1.3508976473469666E-11   2.717733209752944E-11    2.1176956795127017E-11   1.7012521243422274E-11   8.018153137019112E-12    6.393764184136316E-13
2.6E-5                    1.6343603239455796E-11   -2.3080390015026193E-11  -4.562759017206086E-11   -8.478065670856062E-11   2.7883760718978552E-11   -3.0395646661758617E-12  2.6130449090446014E-11   2.1066417745510713E-11   1.9403999913191826E-11   1.080858277721651E-11    9.346948409194408E-13
2.65E-5                   -2.1932636784845572E-11  -5.685548688864338E-11   -7.574972979189141E-11   -1.1184394486163175E-10  9.758345221912127E-12    -2.5490794553035694E-11  2.416144844261401E-11    1.8083946314205496E-11   2.0624890531216702E-11   1.359557040797017E-11    1.4343375363560158E-12
2.7E-5                    -6.896326120559449E-11   -1.0019967988590956E-10  -1.174447449080587E-10   -1.316417273042723E-10   -2.397984215908447E-11   -5.273211338321833E-11   2.0986061428164558E-11   1.2815584217861824E-11   1.9672324860922966E-11   1.6450553722127426E-11   2.359516070250508E-12
2.7499999999999998E-5     -1.239011465623359E-10   -1.5264379345079993E-10  -1.7143073117774375E-10  -1.509317973051674E-10   -7.244025431596039E-11   -8.233387155719397E-11   1.6198122193286616E-11   6.099963962071884E-12    1.471791108668151E-11    1.9122416317141228E-11   3.9031107407792165E-12
2.8E-5                    -1.8792321199928739E-10  -2.1256864334606657E-10  -2.3256920814104987E-10  -1.768477983354055E-10   -1.2811108265606566E-10  -1.11738508124025E-10    9.55241216613705E-12     -2.114756724097008E-12   4.85562885213741E-12     2.0437451377043038E-11   6.1022424430780095E-12
2.8499999999999998E-5     -2.6312651021106606E-10  -2.7789444328790494E-10  -2.914605954671342E-10   -2.1304568354045683E-10  -1.8197855552735494E-10  -1.396530074252543E-10   6.661807770026965E-13    -1.2547209529694504E-11  -7.985737248092072E-12   1.837073305619447E-11    8.775630041968907E-12
2.9E-5                    -3.494544633648996E-10   -3.4619708655290447E-10  -3.400262321953517E-10   -2.5885849607637967E-10  -2.2937972288025526E-10  -1.6659209278850677E-10  -1.130732756992763E-11   -2.5193501461321265E-11  -1.9563433145529814E-11  1.1158718551327003E-11   1.1562508641731726E-11
2.95E-5                   -4.429082492519249E-10   -4.147885649202243E-10   -3.765615301714686E-10   -3.1050533641906256E-10  -2.713518999269214E-10   -1.9419299937187611E-10  -2.7481069909077692E-11  -3.877905681402273E-11   -2.673116399562439E-11   -1.1520196574065295E-12  1.4019721498076296E-11
2.9999999999999997E-5     -5.372188577537928E-10   -4.810555088746206E-10   -4.0589534766668684E-10  -3.624681074446579E-10   -3.1097179566511023E-10  -2.2369555300090072E-10  -4.8652201576397396E-11  -5.223843426697284E-11   -3.080688735440818E-11   -1.600920304645661E-11   1.5694583005650667E-11
3.05E-5                   -6.271495001835006E-10   -5.426386821203184E-10   -4.3460168266200154E-10  -4.087376669659169E-10   -3.489907968922643E-10   -2.544147356770998E-10   -7.493279372220515E-11   -6.66650129998014E-11    -3.723270074721291E-11   -2.943548432615336E-11   1.6136723050897015E-11
3.1E-5                    -7.096232118952058E-10   -5.970577389697815E-10   -4.652553546773027E-10   -4.444719718052382E-10   -3.8295461728085954E-10  -2.8324378291274213E-10  -1.0595049348385608E-10  -8.503914801371276E-11   -5.118640656502959E-11   -3.850110674291375E-11   1.4900268456901193E-11
3.15E-5                   -7.816020019515888E-10   -6.409432730648121E-10   -4.937393277083157E-10   -4.671547578488274E-10   -4.097854993265264E-10   -3.0589318120185105E-10  -1.4138622733980429E-10  -1.0936552676623813E-10  -7.301299336673704E-11   -4.3528294711287886E-11  1.161959727377765E-11
3.2E-5                    -8.376391943723576E-10   -6.69349437940044E-10    -5.104148459931574E-10   -4.753829484161121E-10   -4.283374759125799E-10   -3.1920944377154305E-10  -1.8124599722013194E-10  -1.3807031291265202E-10  -9.785685972116139E-11   -4.823919398578951E-11   6.165174250712543E-12
3.25E-5                   -8.701398952262562E-10   -6.756387811210538E-10   -5.033077614764599E-10   -4.656730958393378E-10   -4.388833453821264E-10   -3.224636747303802E-10   -2.254057056421783E-10   -1.666215230978888E-10   -1.198381927812285E-10   -5.742568767625449E-11   -1.2365696732133503E-12
3.2999999999999996E-5     -8.716276083585245E-10   -6.522976523828042E-10   -4.6145234006219605E-10  -4.308176239070137E-10   -4.39932695670372E-10    -3.1600760059963257E-10  -2.7258369526214235E-10  -1.9093826653848704E-10  -1.3661806507821262E-10  -7.367779357077774E-11   -1.00763421889439E-11
3.35E-5                   -8.357916451231462E-10   -5.924125208861973E-10   -3.7775754093059794E-10  -3.625283481890906E-10   -4.258942893027352E-10   -2.9839182320169115E-10  -3.1958988860441133E-10  -2.1009796735285046E-10  -1.4995909411640584E-10  -9.561992587636467E-11   -1.9873892969052113E-11
3.4E-5                    -7.560112711565488E-10   -4.906887171073361E-10   -2.508931211818118E-10   -2.563399581712428E-10   -3.888148622073253E-10   -2.65012516612083E-10    -3.6175754324315965E-10  -2.2562445794890606E-10  -1.6213969537553029E-10  -1.1899641334465322E-10  -3.057084090937788E-11
3.45E-5                   -6.23716466674079E-10    -3.431703584588177E-10   -8.491227711794827E-11   -1.1378175137606406E-10  -3.2332679556209404E-10  -2.0988188148473223E-10  -3.945099302690436E-10   -2.3827992468199373E-10  -1.7230070219567637E-10  -1.3960458423167765E-10  -4.270917468858116E-11
3.5E-5                    -4.2954853620431735E-10  -1.46460108273739E-10    1.1402785679997805E-10   6.033511309500353E-11    -2.2969814346202645E-10  -1.2867709122033555E-10  -4.1481252013334513E-10  -2.457134626372582E-10   -1.7659517424457035E-10  -1.5553644263809347E-10  -5.717562488359171E-11
3.5499999999999996E-5     -1.6707521339839283E-10  1.0188464883519674E-10   3.418285811631735E-10    2.62426480537835E-10     -1.1076859145953956E-10  -2.003112089905269E-11   -4.2117084821012624E-10  -2.431361431749088E-10   -1.7174463456564029E-10  -1.668911688740093E-10   -7.458264646369808E-11
3.6E-5                    1.6427203248373254E-10   4.015752300038481E-10    5.978674098360256E-10    4.919920574663596E-10    3.494428495985076E-11    1.1552031535834839E-10   -4.121023921973605E-10   -2.260583586608275E-10   -1.5791146643707516E-10  -1.734759414804545E-10   -9.466190404073945E-11
3.65E-5                   5.596928527271794E-10    7.48228249117571E-10     8.823507949218208E-10    7.498229012365831E-10    2.1641034032298872E-10   2.767917763675971E-10    -3.8429807200398906E-10  -1.924084429194936E-10   -1.3760235681085546E-10  -1.7289838139799804E-10  -1.160842179624666E-10
3.7E-5                    1.0119911681705929E-9    1.1338850791259907E-9    1.1923809490708386E-9    1.0349501310806267E-9    4.4487437913787603E-10   4.6169732284746847E-10   -3.3182241472754077E-10  -1.42394059299387E-10    -1.1170019199108419E-10  -1.611158223830301E-10   -1.3680102818904379E-10
3.75E-5                   1.513649119568999E-9     1.548685187019837E-9     1.5203547479156396E-9    1.3425025440476425E-9    7.243706499901415E-10    6.663013041797327E-10    -2.4707381554822444E-10  -7.672591660355388E-11   -7.693711557348695E-11   -1.3516942441801773E-10  -1.545922305077098E-10
3.7999999999999995E-5     2.0559686332435644E-9    1.981893997575866E-9     1.8550008621021412E-9    1.662643039502458E-9     1.0466951099756212E-9    8.848583232659776E-10    -1.2362586970658247E-10  4.935112372612781E-12    -2.7698307641634735E-11  -9.561487141942786E-11   -1.6741421154134722E-10
3.85E-5                   2.626545515029248E-9     2.421578921456965E-9     2.1826625211891106E-9    1.9802793530288326E-9    1.3946420860366212E-9    1.1108386339282124E-9    3.986764868936302E-11    1.0397202358203268E-10   3.946447406570809E-11    -4.623994675291158E-11   -1.7347133172322714E-10
3.9E-5                    3.2077201035539982E-9    2.8535451986805903E-9    2.4876523937948837E-9    2.276103368573501E-9     1.7488808869643364E-9    1.3373903807588695E-9    2.371354945397377E-10    2.2136614042008427E-10   1.2296401787857166E-10   8.888112142879634E-12    -1.7129992500617136E-10
3.95E-5                   3.776886748325524E-9     3.2602526595684194E-9    2.75269851026656E-9      2.5292506272944955E-9    2.091622801399303E-9     1.5564390626130183E-9    4.561322045315821E-10    3.5606336580588496E-10   2.1744739290072674E-10   6.850740495206537E-11    -1.600910317215893E-10
3.9999999999999996E-5     4.307302547367596E-9     3.620127227549281E-9     2.9598262688157973E-9    2.7202639355832704E-9    2.4055849447187845E-9    1.7574495977424277E-9    6.85617264735406E-10     5.044664337159399E-10    3.1749433919821E-10      1.3478883072439703E-10   -1.4001594375685598E-10
4.0499999999999995E-5     4.7681617407591315E-9    3.907740166649546E-9     3.0903283236983026E-9    2.8325203583640183E-9    2.6721661361025E-9       1.9273688203111616E-9    9.221980199972083E-10    6.614122181587346E-10    4.2007504524074783E-10   2.112700298431682E-10    -1.120149698006375E-10
4.1E-5                    5.12464207254765E-9      4.09511775231496E-9      3.1237658875213793E-9    2.8519158233861997E-9    2.8721401468484506E-9    2.052042348672101E-9     1.1717610889628797E-9    8.217866842066315E-10    5.240936721924055E-10    3.000811280347359E-10    -7.683467595284824E-11
4.15E-5                   5.339541499508271E-9     4.153667099199852E-9     3.03865785500949E-9      2.766225693760884E-9     2.9878314140378316E-9    2.1180181054070893E-9    1.4430842566637392E-9    9.814386721176683E-10    6.285238099996145E-10    4.004098830036273E-10    -3.385610911604584E-11
4.2E-5                    5.376701425487377E-9     4.055939906361035E-9     2.8164027177101846E-9    2.5649964485842624E-9    3.003862033979809E-9     2.1134062383012707E-9    1.7378015110409138E-9    1.1366434031057654E-9    7.313773167390114E-10    5.084606894752692E-10    1.9291108899025735E-11
4.2499999999999996E-5     5.204329118551918E-9     3.777250198576801E-9     2.445351675127629E-9     2.2392414464023536E-9    2.9059646255174126E-9    2.0273773961450402E-9    2.043805491393554E-9     1.282494175527021E-9     8.297867467091231E-10    6.180712239952748E-10    8.574692695894972E-11
4.2999999999999995E-5     4.796103631109346E-9     3.2977579783186968E-9    1.920606105686209E-9     1.7803455152731546E-9    2.6801551321987395E-9    1.8491736938791988E-9    2.336273135219521E-9     1.411388523807283E-9     9.197915332534139E-10    7.216299138478784E-10    1.6754966205802902E-10
4.35E-5                   4.130164216272306E-9     2.6049061405553683E-9    1.2401109223947033E-9    1.1794668772405141E-9    2.314008634993665E-9     1.5681445846624987E-9    2.5849096166232877E-9    1.512756155377631E-9     9.952138243565706E-10    8.116713741390682E-10    2.64163337916316E-10
4.4E-5                    3.188617416166393E-9     1.6950116095307068E-9    4.026787798299948E-10    4.2948797677683747E-10   1.7989210043791493E-9    1.1755525974527167E-9    2.7623459211343927E-9    1.5744326175574814E-9    1.0470350286276208E-9    8.829734264567064E-10    3.7244570735341305E-10
4.45E-5                   1.960071176705407E-9     5.730731420439175E-10    -5.884804513444383E-10   -4.703864922063873E-10   1.1310041118061419E-9    6.672021670858244E-10    2.848911840307956E-9     1.585010099334133E-9     1.0649767338847591E-9    9.336323297698689E-10    4.87900007944818E-10
4.4999999999999996E-5     4.444421264255438E-10    -7.485753368196494E-10   -1.720070587813759E-9    -1.5099460297793748E-9   3.1027925113812184E-10   4.5061889107125947E-11   2.832128788535874E-9     1.5357182916242882E-9    1.0407718970848173E-9    9.634904517567698E-10    6.059570083924849E-10
4.5499999999999995E-5     -1.3435885499859496E-9   -2.2510206757919396E-9   -2.967084809537021E-9    -2.6662177588232407E-9   -6.595506976524795E-10   -6.829194570051879E-10   2.7027166064707813E-9    1.420589222026483E-9     9.70429842185787E-10     9.703519947752248E-10    7.221177981688577E-10
4.6E-5                    -3.374704752735613E-9    -3.9077504691575675E-9   -4.296629744051898E-9    -3.905516309057087E-9    -1.7688106120270653E-9   -1.5038208923426147E-9   2.450513714901124E-9     1.2349587008356967E-9    8.534648910022767E-10    9.469122783731944E-10    8.310357327522223E-10
4.65E-5                   -5.606580741719723E-9    -5.682296998602632E-9    -5.672157171956482E-9    -5.1874348671193565E-9   -2.998292462661191E-9    -2.4001914118830238E-9   2.0628596398301973E-9    9.738146514182644E-10    6.9011155818039E-10      8.814858193791212E-10    9.258001788940967E-10
4.7E-5                    -7.983441035680142E-9    -7.526131451795588E-9    -7.05293377446848E-9     -6.467635615867429E-9    -4.3177576695808746E-9   -3.3497676297944254E-9   1.5259120243007414E-9    6.317482860320221E-10    4.795947911790258E-10    7.627780975878395E-10    9.985429425212362E-10
4.7499999999999996E-5     -1.0433759647969764E-8   -9.37823204934335E-9     -8.38973848448355E-9     -7.697543586195127E-9    -5.687832727262857E-9    -4.325302570422677E-9    8.278751950523861E-10    2.0491471908936956E-10   2.2117627771196704E-10   5.85533658604368E-10     1.0420904142491288E-9
4.8E-5                    -1.2870141658592109E-8   -1.1166751460624621E-8   -9.622797036485457E-9    -8.822329358888689E-9    -7.06267304007137E-9     -5.294877427356738E-9    -3.712888996049748E-11   -3.06336343156459E-10    -8.354491521254339E-11   3.53045189657168E-10     1.0511902577995663E-9
4.85E-5                   -1.5193568727678942E-8   -1.2812336800996078E-8   -1.0686038744922145E-8   -9.781206559807267E-9    -8.389982096488633E-9    -6.222262538135164E-9    -1.0654976910022657E-9   -8.959898349182694E-10   -4.300094830125409E-10   7.491666043060312E-11    1.0221969746782868E-9