% Model:              Untitled.mph
% Version:            COMSOL 6.0.0.405
% Date:               Jul 16 2025, 16:55
% Dimension:          1
% Nodes:              401
% Expressions:        11
% Description:        Point graph
% Time (s)                Displacement field, Y component Displacement field, Y component Displacement field, Y component Displacement field, Y component Displacement field, Y component Displacement field, Y component Displacement field, Y component Displacement field, Y component Displacement field, Y component Displacement field, Y component Displacement field, Y component
0                         -1.0046426404775536E-34  1.4378999660240483E-33   2.4910260128360394E-32   1.4458030106795273E-32   4.2081056491158593E-32   1.848802844454572E-31    4.1727615061561203E-32   7.705898570588186E-32    4.839388036454566E-32    -4.549195245211247E-33   3.500467106744231E-35
5.0E-7                    8.512771657166784E-25    5.9307744163092855E-25   -4.773053660879122E-24   6.488056878120239E-24    1.2667402039962647E-23   2.969079512252719E-22    3.6221695655356673E-23   -9.57448234550281E-23    1.5562780002455141E-22   3.562963246097671E-24    -2.001722351550088E-24
1.0E-6                    -1.2030588466447422E-24  7.460176752786143E-24    -1.0590259301942767E-22  -3.114460106047259E-24   6.419130268980536E-24    -1.620504888555161E-21   -3.22401759216183E-22    -2.887320060935219E-22   -7.96179497224049E-22    -9.653544287969717E-24   1.8282770083833527E-23
1.5E-6                    1.0503904278174676E-23   -3.140380475172868E-23   4.354839356550066E-22    -1.3865818146884192E-22  -1.7642681423115644E-22  4.8725655086065585E-21   8.107428929318712E-22    4.6366120813032166E-21   7.370996166614517E-22    4.635412503252343E-23    -1.3678246363777184E-23
2.0E-6                    -2.724989740801094E-24   -5.225439607769648E-23   3.3679414927720737E-22   -8.129031151342892E-23   -1.6283876675220498E-21  -1.0867431353059589E-20  -7.814794363821424E-22   -8.075405367401274E-21   -7.867410888058542E-23   -1.5303356597328622E-22  -3.433375170062351E-23
2.4999999999999998E-6     -8.33992851297398E-23    1.27552705838398E-22     -2.0235953296487887E-21  1.4310232484260984E-21   2.5713529839000455E-21   6.9276299360146E-21      1.5530471751909441E-21   -1.5151534828143932E-20  5.997401706652658E-21    3.6879646481391426E-22   -2.2264547827951022E-23
3.0E-6                    -8.40831542257903E-23    -7.427292267835428E-23   2.7953121047820385E-22   1.9197747392579872E-22   1.0044120061954585E-20   5.814534070233263E-20    1.0182717256441058E-21   1.801848328212232E-20    1.2757331035110751E-20   3.760548867121293E-22    8.194714262942347E-23
3.5E-6                    1.005870399012767E-22    -9.554421024008517E-22   1.238231870995558E-20    -2.8478882866400138E-21  -4.50996902433855E-21    -1.2097402263708068E-19  -2.6872010393005856E-20  7.848490655571167E-20    -7.805803695676869E-20   1.1670902135884993E-22   1.7639010025694505E-22
4.0E-6                    1.553777821350654E-21    1.0221578788857116E-21   -8.018752118283794E-21   -7.96376541766708E-21    9.064393201828237E-21    6.855325523660458E-21    1.9711489075328125E-20   2.025740488705697E-19    -1.291796414331912E-19   7.308253305244243E-21    -6.025565445798515E-22
4.5E-6                    1.906480094018314E-21    2.7016956023785444E-21   -6.574769539043393E-20   3.0212180042391174E-21   5.0059545581411716E-20   7.642164208948094E-19    1.6902097792467708E-19   -4.943215228798067E-19   3.96617794341531E-19     -1.1209275036291442E-20  1.6605560327798644E-21
4.9999999999999996E-6     -7.085788936096202E-21   -1.2944869420423238E-20  3.2786947618520584E-20   1.1657474723182795E-19   -3.3037293705462327E-19  -1.2819465460396524E-18  -8.836502143215206E-20   -2.1226522724629684E-18  9.265200814078363E-19    -8.493704668326563E-20   5.270432895646299E-21
5.5E-6                    -7.338633055901452E-21   -1.6123789029168145E-21  3.533185105320425E-19    3.787417911609192E-20    -7.614219850498502E-19   -3.489686406491642E-18   -8.600513248555411E-19   2.0200638799435924E-18   -8.38051074554123E-19    8.059422664123562E-20    -2.3610587724714955E-20
6.0E-6                    3.287548245444754E-20    1.1603297303818956E-19   1.3052049558152931E-19   -7.374711129048977E-19   1.7663819262852956E-18   1.0849366994887697E-17   2.7932010834265104E-20   1.2704415241545641E-17   -3.7728709696911394E-18  7.16586091623109E-19     -6.28495906895591E-20
6.5E-6                    2.1812839385535807E-20   6.74831933625677E-20     -1.0564532448908495E-18  -8.641846780820009E-19   6.457258075311576E-18    2.0966481058757342E-17   3.3631494078213262E-18   -2.575652846044895E-18   -1.1189896426855836E-18  1.1100721332963981E-19   1.164766536277644E-19
7.0E-6                    -1.751722056906765E-19   -5.267708803439048E-19   9.347339773384127E-20    2.0191025021473166E-18   2.250431171739318E-20    -3.164628468662271E-17   2.677087369024908E-18    -5.2746264141950115E-17  8.779987782906253E-18    -3.8555838933711365E-18  5.212224111770062E-19
7.499999999999999E-6      -1.9367758450723666E-19  -6.211795866849408E-19   4.977820220407201E-18    4.280630272542177E-18    -1.9775499816766628E-17  -6.88896612568099E-17    -7.519268163819869E-18   -1.871197168280443E-17   1.781594692641388E-17    -4.318041662437547E-18   -8.688015071531106E-21
8.0E-6                    7.02377911193003E-19     1.3808509036879085E-18   -7.915148944779251E-19   -3.701914640204919E-18   -7.203202390096835E-18   7.194260043759387E-17    -1.621483567718063E-17   1.649035932471439E-16    1.035694324603505E-17    1.3297537240231011E-17   -2.4777369910461013E-18
8.5E-6                    1.5688595182179933E-18   2.7135545288481316E-18   -2.2634429727658192E-17  -1.0318499413213533E-17  7.032304497724533E-17    2.5439253577421424E-16   8.91178987053479E-18     1.7127411763424176E-16   -4.7082391346652224E-17  3.368896454817344E-17    -2.826939038726127E-18
9.0E-6                    -1.012845406268742E-18   -2.2315493862370967E-18  -7.371531796139567E-19   2.6597941127965937E-17   1.1561310122847263E-16   1.690983743825486E-16    7.562119169378918E-17    -3.0634243493048525E-16  -1.3101723596941372E-16  -1.1589854717527891E-17  6.8845005910786026E-18
9.499999999999999E-6      -6.3523657049859285E-18  -6.490409409464803E-18   1.1793790984866458E-16   6.947182956680167E-17    4.954811667262706E-18    -2.0576532830864094E-16  5.280170029869322E-17    -6.299424882641352E-16   -1.6525788803047935E-17  -1.3339763575518903E-16  1.9295945886199115E-17
9.999999999999999E-6      -2.6749772695654683E-18  1.8029017560474824E-17   1.6699886231950565E-16   -4.077381411843301E-17   -1.5853709552263545E-16  -5.66177146978236E-16    -1.774903898299846E-16   2.146897467210239E-16    4.2634424110581454E-16   -1.1628834187492478E-16  -1.277858140991347E-18
1.05E-5                   1.7268001405916738E-17   7.744464084117016E-17    -1.5309805520867411E-16  -1.7856693888494602E-16  -8.809339635047475E-17   1.523765847065083E-16    -1.9969530716697217E-16  1.5761543358701587E-15   5.521744114191638E-16    2.8893941381710093E-16   -6.658697437086833E-17
1.1E-5                    2.8540778521923394E-17   6.070212022430135E-17    -6.225190811146161E-16   2.467798688112087E-16    5.120785702784784E-16    2.9318135012561095E-15   4.540433742409169E-16    1.1911065232427482E-15   -4.0991151426050563E-16  7.095147321383736E-16    -7.629509731389734E-17
1.15E-5                   2.0321012797624758E-18   -2.0635701874645898E-16  -1.1268876604176647E-16  1.0731769649673855E-15   1.8617237033555476E-15   4.752506371680962E-15    7.07986874629997E-16     -1.3377766442919406E-15  -1.2298945068924737E-15  9.500106709155109E-17    1.0658217094795491E-16
1.2E-5                    -2.182105917714118E-17   -4.842742103910189E-16   2.256503442069344E-15    6.847387255170966E-16    3.2352276687213767E-15   1.3567883020427853E-15   -5.401212408002887E-16   -2.554135779982792E-15   4.693554860973121E-16    -1.6277723214152597E-15  3.489936620514035E-16
1.2499999999999999E-5     1.7060673577137997E-17   2.3718980852490564E-16   4.861729852226059E-15    -8.120978753050459E-16   2.4242782304817186E-15   6.873513890276732E-16    -1.6316948456293097E-16  7.294876636409973E-16    3.061308166957602E-15    -1.9015920882187992E-15  1.741384709115272E-16
1.3E-5                    4.3721960606675855E-17   2.4697715672212564E-15   3.623508766206687E-15    1.4790911160079411E-15   -1.8677403837224665E-16  1.9224717544274448E-14   4.808375507149301E-15    6.386207508608826E-15    1.1922102241646827E-15   2.0767958039954903E-15   -5.89634852629441E-16
1.35E-5                   1.5849806433789888E-17   3.839697387104105E-15    -2.1312476474086835E-15  1.1538697412954623E-14   4.2099153404957246E-15   4.9387577269933894E-14   6.127437444727049E-15    1.0980752388413457E-14   -3.0387751664219393E-15  7.387182676313628E-15    -1.0947431323190069E-15
1.4E-5                    3.54203601649811E-16     5.222356877176167E-16    -1.979021534053331E-15   2.2917294181424695E-14   2.6896895472283515E-14   5.754790826613525E-14    -4.402533268822487E-15   1.7015911907097685E-14   4.209049666293389E-15    5.094940076471854E-15    -1.1791255261639755E-16
1.45E-5                   1.4705475419679088E-15   -4.908613510669084E-15   2.084724404465914E-14    2.3969541773840497E-14   6.435341197940374E-14    5.454443545706547E-14    -3.807732777897974E-15   2.5207516802805388E-14   2.8312283914381092E-14   -7.1003012093602295E-15  2.1055149422984926E-15
1.4999999999999999E-5     2.3811952355318506E-15   2.2079556658168396E-16   6.663010538105397E-14    2.0455808096268678E-14   9.882278057165269E-14    1.4513767422739892E-13   4.365618032703514E-14    2.6378856540664276E-14   4.466379689609358E-14    -1.2174950959589521E-14  3.3021461983340312E-15
1.55E-5                   1.6186772228724053E-15   2.3880370090781593E-14   1.0817539777200719E-13   5.134853316034979E-14    1.3215316523905366E-13   4.3452185229950057E-13   1.0620355397410351E-13   3.393599564640465E-14    1.957061579266193E-14    1.2179536395658818E-14   1.4477187254543729E-15
1.6E-5                    1.7910890924815243E-15   4.978955436245504E-14    1.3291891147056078E-13   1.759756205596631E-13    2.1460933802156472E-13   8.644806139971574E-13    9.034533889910005E-14    1.1909432715928413E-13   -2.8960124738753546E-14  5.446905411572658E-14    -2.2135641681118678E-15
1.6499999999999998E-5     1.0227549439968407E-14   5.592775888779912E-14    2.0890305816953385E-13   4.3402614342018234E-13   4.267246976803142E-13    1.2292163890611675E-12   2.1932418179893426E-14   3.3943344420726045E-13   4.206887549754868E-15    6.074324432099904E-14    -3.4489481324588926E-15
1.7E-5                    2.8230267950871692E-14   7.350472505094218E-14    4.676762361832844E-13    8.037242261209439E-13    8.38247739114588E-13     1.5000944343633483E-12   1.5217611933182384E-13   6.140250359554936E-13    2.4946891989520786E-13   5.50752349044918E-15     6.323416319523052E-16
1.75E-5                   4.294952340414102E-14    1.9782870143376876E-13   9.817982280503058E-13    1.2232591054441858E-12   1.5007210876164042E-12   2.2183712138317013E-12   6.835900596471954E-13    8.053498735814721E-13    7.050666991727419E-13    -1.748132190009865E-14   8.362981753714157E-15
1.8E-5                    5.0081566474182784E-14   4.798271785850887E-13    1.7262087599080478E-12   1.7582206927711993E-12   2.4975687381531483E-12   4.477501882169908E-12    1.3838439777481892E-12   1.0425080270828408E-12   1.1288361231631173E-12   1.660404264184095E-13    1.7238036658662424E-14
1.85E-5                   9.733665809802379E-14    8.238639289500085E-13    2.816480462525341E-12    2.8785094045910387E-12   4.062038699910942E-12    9.297822696809658E-12    1.7849258178191134E-12   1.8556412207032784E-12   1.2139307668534139E-12   6.025465735128027E-13    3.102942138371863E-14
1.8999999999999998E-5     2.7670271127352887E-13   1.1375732944710687E-12   4.847008965606636E-12    5.592539455007532E-12    6.750525727335339E-12    1.68440964354724E-11     2.0287569579381993E-12   3.816345989200226E-12    1.0817574078818207E-12   1.0517398587997314E-12   5.851397641792571E-14
1.95E-5                   6.215666674432547E-13    1.709757188565604E-12    8.82435505508357E-12     1.1157997992480433E-11   1.1510479352318959E-11   2.6176692971822297E-11   3.365105993111965E-12    7.094756991348477E-12    1.662121327031289E-12    1.173991535819526E-12    1.0238466030613363E-13
1.9999999999999998E-5     1.0193397835747744E-12   3.3522703216000635E-12   1.5444279231028726E-11   2.038717009824971E-11    1.9344163318444532E-11   3.565995078278288E-11    7.448630481474933E-12    1.1521818040987952E-11   4.3663582662575925E-12   1.0435840368018141E-12   1.5582021469706078E-13
2.05E-5                   1.3484119579498921E-12   6.899960232365126E-12    2.41474271512969E-11     3.290704744123557E-11    3.0477273076395717E-11   4.3535245259392267E-11   1.497257844193987E-11    1.696451539019992E-11    1.0044014249933765E-11   1.5221519727276083E-12   2.191464045743276E-13
2.1E-5                    1.8542774176153723E-12   1.2377186581146885E-11   3.277989062794379E-11    4.679494557168118E-11    4.349959606758987E-11    4.8321740361595326E-11   2.4952506705128712E-11   2.327511177353394E-11    1.8042162447611273E-11   3.97884426265095E-12     3.2414878695577397E-13
2.1499999999999997E-5     3.383391855285996E-12    1.8689968975886516E-11   3.8372885045966547E-11   5.883523473161482E-11    5.532516225876392E-11    4.911534990229194E-11    3.514206663633815E-11    2.971897047576043E-11    2.624799646061165E-11    9.35796693174724E-12     5.531504997514282E-13
2.2E-5                    6.9790227612870106E-12   2.428389580570193E-11    3.878126042250765E-11    6.539434165103171E-11    6.242429148449132E-11    4.566265352202202E-11    4.297170168695659E-11    3.471430344540666E-11    3.213785696980448E-11    1.7234242051686094E-11   1.0611065867446302E-12
2.2499999999999998E-5     1.2872266986049869E-11   2.8195605524466762E-11   3.413100575045202E-11    6.358713535869673E-11    6.264845833164094E-11    3.7871190792293336E-11   4.642195558203859E-11    3.648981913994292E-11    3.40245248032045E-11     2.5641381829164858E-11   2.090380630652273E-12
2.3E-5                    1.9713506320056E-11      3.046866775489461E-11    2.6746724359047293E-11   5.215574828120214E-11    5.610969243989336E-11    2.511328816997426E-11    4.4721848273567656E-11   3.409688958413524E-11    3.1659377805121534E-11   3.191876082462366E-11    3.917636120567506E-12
2.35E-5                   2.505374027364005E-11    3.1515852741269545E-11   1.9120203916107238E-11   3.166495254423134E-11    4.419337063906095E-11    6.356455550983629E-12    3.8641459921647454E-11   2.7698373465443302E-11   2.589367668092711E-11    3.402174742442221E-11    6.698456318241444E-12
2.4E-5                    2.709159659862367E-11    3.106902513725952E-11    1.1402481656425515E-11   4.140124585941581E-12    2.7611335075776372E-11   -1.8744364825689158E-11  2.996296044484694E-11    1.792103844454665E-11    1.77048525087343E-11     3.135913210039781E-11    1.0301083893332456E-11
2.45E-5                   2.629023211910086E-11    2.7848387218343963E-11   9.853968751520573E-13    -2.7528754319253823E-11  5.4145464669943535E-12   -4.922237000606023E-11   2.0310825374980175E-11   5.14260763958187E-12     7.349166639634856E-12    2.4590736300819653E-11   1.4285890012911712E-11
2.4999999999999998E-5     2.5158593077373107E-11   2.045694676145348E-11    -1.4976382306690526E-11  -6.03983783611621E-11    -2.427326473202222E-11   -8.379935506835377E-11   1.0203057363040556E-11   -1.054227096250801E-11   -5.568751951489952E-12   1.4660955858795526E-11   1.8061588634359108E-11
2.55E-5                   2.5978270409478928E-11   8.685140597324855E-12    -3.6615692095709004E-11  -9.256538379594989E-11   -6.292240951901837E-11   -1.2248758802778886E-10  -1.1284873063715586E-12  -2.897225454416216E-11   -2.11514179472111E-11    1.9946461030583868E-12   2.105621236006234E-11
2.6E-5                    2.8334703197525445E-11   -6.25980866403261E-12    -6.147435010731435E-11   -1.240861571350101E-10   -1.1095537514593416E-10  -1.665937993297534E-10   -1.5470369806288E-11     -4.989774218814719E-11   -3.8616080373770914E-11  -1.3352197422052003E-11  2.2727645105518674E-11
2.65E-5                   2.881691741230089E-11    -2.3059159667065864E-11  -8.787721849126136E-11   -1.569271875579037E-10   -1.6762750995938793E-10  -2.165863361301398E-10   -3.544774736114066E-11   -7.333494431954932E-11   -5.718989909008276E-11   -3.0776191832564965E-11  2.245227161539512E-11
2.7E-5                    2.3370826092553026E-11   -4.1756292774230996E-11  -1.1765745487490128E-10  -1.9377575946282207E-10  -2.3061774941740706E-10  -2.699452264038621E-10   -6.434735378140462E-11   -9.978172853972305E-11   -7.771499142921221E-11   -4.8675559179394675E-11  1.9529036394336836E-11
2.7499999999999998E-5     1.0226937947681256E-11   -6.368944238376587E-11   -1.5461733357868585E-10  -2.3653217327343907E-10  -2.956981871157194E-10   -3.2155905826991057E-10  -1.0529036460063484E-10  -1.3008054129270662E-10  -1.0262507003192842E-10  -6.55201879262836E-11    1.3450301804945993E-11
2.8E-5                    -9.287187878538629E-12   -8.998435375544691E-11   -1.998152685201444E-10   -2.85413667894818E-10    -3.577705648677543E-10   -3.6670232740776074E-10  -1.5941758820842478E-10  -1.6506371262474927E-10  -1.3329361629634746E-10  -8.175726777224962E-11   4.257177737847339E-12
2.8499999999999998E-5     -3.265538685027223E-11   -1.2041689956158797E-10  -2.4851288804219843E-10  -3.387463421744849E-10   -4.1318752471913634E-10  -4.0376072246780207E-10  -2.239790913180715E-10   -2.048923094678809E-10   -1.6705792717609557E-10  -1.0025750762231995E-10  -7.412926227122289E-12
2.9E-5                    -5.873771380588999E-11   -1.5382050462768812E-10  -2.921944196378633E-10   -3.9293040653036034E-10  -4.610808400333327E-10   -4.339158121053768E-10   -2.922614024224655E-10   -2.4803178967386205E-10  -1.9750826052120844E-10  -1.239009743916294E-10   -2.0755955951112533E-11
2.95E-5                   -8.845151320712418E-11   -1.8919958455331835E-10  -3.2420475886971734E-10  -4.424900062164528E-10   -5.01788451109542E-10    -4.5805776543790206E-10  -3.5651057049678973E-10  -2.906247037584939E-10   -2.1877758354420096E-10  -1.5210779879014103E-10  -3.539883879655145E-11
2.9999999999999997E-5     -1.2316728270798859E-10  -2.260445490925878E-10   -3.4419782254937697E-10  -4.807482148271827E-10   -5.337782393829319E-10   -4.738430050896934E-10   -4.123221455580142E-10   -3.273850030352905E-10   -2.30309518477696E-10    -1.800598415705096E-10   -5.164108773030079E-11
3.05E-5                   -1.6275222870183613E-10  -2.635978812150874E-10   -3.57470623397959E-10    -5.013397447532543E-10   -5.52649910609996E-10    -4.752061838407943E-10   -4.6088775192192893E-10  -3.539344252260932E-10   -2.3750919521702456E-10  -2.0205458736750526E-10  -7.010423509891824E-11
3.1E-5                    -2.052210030155213E-10   -3.000014551670992E-10   -3.6926470603830114E-10  -4.997526459302058E-10   -5.53444728848947E-10    -4.5403662071847083E-10  -5.066818446530961E-10   -3.688169620053881E-10   -2.4709221140044955E-10  -2.1589563720266463E-10  -9.103010878485398E-11
3.15E-5                   -2.4794657674188857E-10  -3.320750283854569E-10   -3.7827614719261E-10     -4.737511173739386E-10   -5.331381280143306E-10   -4.0244466175876045E-10  -5.519653632842215E-10   -3.7323177771115095E-10  -2.606379400552986E-10   -2.237862249096875E-10   -1.137166084348092E-10
3.2E-5                    -2.8888584208517007E-10  -3.5582361351448236E-10  -3.7493854406893686E-10  -4.224157758614263E-10   -4.897414206627099E-10   -3.147663909708665E-10   -5.922473924921082E-10   -3.6822115444994425E-10  -2.715583851890452E-10   -2.2886548007658962E-10  -1.3651048833105146E-10
3.25E-5                   -3.2680719674802087E-10  -3.6755857129817504E-10  -3.46815388164741E-10    -3.446493638065635E-10   -4.1902084119088173E-10  -1.8900927178914755E-10  -6.160563430717751E-10   -3.5130056172748816E-10  -2.6800444062896424E-10  -2.3109805855076719E-10  -1.5747065501046856E-10
3.2999999999999996E-5     -3.608331810818837E-10   -3.652044396339794E-10   -2.8723724515403247E-10  -2.3821929687165174E-10  -3.134559188805983E-10   -2.6874907699185204E-11  -6.090546702239576E-10   -3.154814721301611E-10   -2.395225274575665E-10   -2.2644018192494053E-10  -1.7530727879945875E-10
3.35E-5                   -3.898461964216007E-10   -3.486487768632342E-10   -1.9945484488913646E-10  -9.981846378034162E-11   -1.6549127729692514E-10  1.6836211316499043E-10   -5.595749500493864E-10   -2.5206704904230014E-10  -1.82485894269261E-10    -2.092782211388178E-10   -1.8976830679709903E-10
3.4E-5                    -4.11690371247606E-10    -3.1815111620232417E-10  -9.180712722082966E-11   7.39795123613915E-11     2.8478768651870475E-11   3.948271757867593E-10    -4.6201888524272025E-10  -1.5525621674199936E-10  -1.0063656913938838E-10  -1.750399239213824E-10   -2.0089191945763022E-10
3.45E-5                   -4.222517324791871E-10   -2.7171214304301095E-10  3.205190862531192E-11    2.85253524149433E-10     2.6805944876644844E-10   6.528847510401425E-10    -3.163668140617709E-10   -2.4657043895756885E-11  -1.0943060559108624E-12  -1.2085702424117877E-10  -2.0760770298561923E-10
3.5E-5                    -4.154293132136503E-10   -2.0409728662722748E-10  1.7822846362231404E-10   5.332970205751221E-10    5.523336919509919E-10    9.42308423782025E-10     -1.2493603175066853E-10  1.3617667667870007E-10   1.1066933553626395E-10   -4.5185917420777E-11     -2.070651460716153E-10
3.5499999999999996E-5     -3.848745499568617E-10   -1.0919668614054912E-10  3.572613808900875E-10    8.13895674861294E-10     8.817116831969393E-10    1.2579400779362374E-9    1.1067946379472778E-10   3.230232069335891E-10    2.33466302628964E-10     5.172144800594038E-11    -1.9559746219030673E-10
3.6E-5                    -3.265565315107749E-10   1.604324426469388E-11    5.730531056968571E-10    1.1197239399665458E-9    1.2545964891394568E-9    1.587788937555247E-9     3.9028689945691255E-10   5.325677118672074E-10    3.6962031982698265E-10   1.6666647183867304E-10   -1.706252658675864E-10
3.65E-5                   -2.398426657238255E-10   1.69924099816693E-10     8.168783552062407E-10    1.441364735608329E-9     1.661368770733262E-9     1.915152414515064E-9     7.135235347562349E-10    7.614883721535728E-10    5.220092521785288E-10    2.939091468896593E-10    -1.317642723568731E-10
3.7E-5                    -1.25971900981701E-10    3.4820056840989985E-10   1.0723101630055877E-9    1.7677968617346684E-9    2.0817434554120332E-9    2.2224808924719515E-9    1.077723355080817E-9     1.0051742305202505E-9    6.909059317813558E-10    4.2824874223588886E-10   -8.013541320949299E-11
3.75E-5                   1.4528444667229894E-11   5.476345535362631E-10    1.325699797540327E-9     2.0858750145521616E-9    2.4887586081584257E-9    2.493676414984355E-9     1.4766122441014367E-9    1.2576526405034838E-9    8.722829392529789E-10    5.684241255886863E-10    -1.6632106826095212E-11
3.7999999999999995E-5     1.8283975532524068E-10   7.669082302071575E-10    1.571356993909844E-9     2.3798433685284633E-9    2.8564175379261194E-9    2.7138682120213684E-9    1.900126542126555E-9     1.5119438690182042E-9    1.0583252557166381E-9    7.169349370148655E-10    5.915269881573519E-11
3.85E-5                   3.80315553741492E-10     1.0039649578202632E-9    1.806652300791837E-9     2.632212944097512E-9     3.1645222673414007E-9    2.868043358609951E-9     2.334919374333125E-9     1.7596712136175106E-9    1.239447766908162E-9     8.753837996766148E-10    1.483628797337591E-10
3.9E-5                    6.059691406340933E-10    1.2527632758237794E-9    2.023048104433977E-9     2.825580115118799E-9     3.397029975320284E-9     2.939920453054183E-9     2.764762703948625E-9     1.990329525100192E-9     1.4059575452658162E-9    1.0391951357616727E-9    2.512596964196496E-10
3.95E-5                   8.552677884045384E-10    1.502679583294512E-9     2.2027738819750974E-9    2.943346648725895E-9     3.5366571732497867E-9    2.9115454918118493E-9    3.170063368377906E-9     2.191056490008404E-9     1.548019373995032E-9     1.1967127898649143E-9    3.660419260188388E-10
3.9999999999999996E-5     1.1210357068277795E-9    1.740539877242027E-9     2.324111146850942E-9     2.968374632441484E-9     3.561804572090668E-9     2.7640219855120986E-9    3.52670049191396E-9      2.346532506586332E-9     1.654611623974686E-9     1.3336232535631547E-9    4.891429481746799E-10
4.0499999999999995E-5     1.395275499360593E-9     1.9527820732119298E-9    2.369316705954751E-9     2.8814490581410416E-9    3.4486537223932896E-9    2.4796612227446748E-9    3.8059698880857866E-9    2.4385509606427807E-9    1.713432263530829E-9     1.4385727712758476E-9    6.166730646048383E-10
4.1E-5                    1.6700219947375741E-9    2.1261628638078634E-9    2.327729490336157E-9     2.6623460261991736E-9    3.1756180543078558E-9    2.044609662375965E-9     3.977447385830861E-9     2.4465899386430512E-9    1.7125877008061875E-9    1.504944607511066E-9     7.455812930148844E-10
4.15E-5                   1.9363657503779395E-9    2.247632766156235E-9     2.192739945003541E-9     2.2937805081827304E-9    2.7261229275787366E-9    1.4503357253086315E-9    4.013868776779942E-9     2.351096499731407E-9     1.6426739272606526E-9    1.527705589284373E-9     8.732810023642774E-10
4.2E-5                    2.1825130828354666E-9    2.3043406230309984E-9    1.957167874712955E-9     1.765464631768825E-9     2.0895328337746695E-9    6.938615324622671E-10    3.8941394287120245E-9    2.138259605908562E-9     1.49722312697653E-9      1.4989105432684095E-9    9.9583862682306E-10
4.2499999999999996E-5     2.392672864193125E-9     2.2835644776128325E-9    1.6115899035873959E-9    1.075587484831647E-9     1.2626050454221574E-9    -2.2162953630064862E-10  3.6013159844927753E-9    1.8022675877279638E-9    1.2711989788475696E-9    1.406418553303145E-9     1.1061760328119669E-9
4.2999999999999995E-5     2.547894226625571E-9     2.1723735400042414E-9    1.1463831681723392E-9    2.2985154702374658E-10   2.5133840702389415E-10   -1.2849987797514266E-9   3.11719878835792E-9      1.3427548730760853E-9    9.594019975137338E-10    1.2370085834713126E-9    1.1938735523877975E-9
4.35E-5                   2.6283875093201056E-9    1.9581945199466937E-9    5.556721309774851E-10    -7.598273086563635E-10   -9.29927754390311E-10    -2.4756040055263106E-9   2.41942650949239E-9      7.600096388131627E-10    5.570158961661894E-10    9.80934293005093E-10     1.2469989384343458E-9
4.4E-5                    2.615871364346784E-9     1.6313716461770961E-9    -1.5875635245085998E-10  -1.875606080830377E-9    -2.2628385901766652E-9   -3.7635356600585384E-9   1.4858388803472174E-9    5.2921316277600987E-11   6.262771638302435E-11    6.341815447801767E-10    1.2549164962518798E-9
4.45E-5                   2.49492280491596E-9      1.1882792924853004E-9    -9.851880074026332E-10   -3.0933028377334167E-9   -3.727791602034611E-9    -5.110888649555851E-9    3.0471918182766893E-10   -7.780726938460866E-10   -5.184389332421652E-10   1.9774399849067147E-10   1.2103273432698607E-9
4.4999999999999996E-5     2.253417226717092E-9     6.318511922732518E-10    -1.902879452675657E-9    -4.3819426654465796E-9   -5.2996400294601505E-9   -6.472223425428379E-9    -1.1160677193009571E-9   -1.7254404975234836E-9   -1.1733143526140517E-9   -3.236445734962463E-10   1.1093130084812628E-9
4.5499999999999995E-5     1.882636089813141E-9     -3.1361403006967754E-11  -2.8861515260048392E-9   -5.70335874212369E-9     -6.938001895331611E-9    -7.794310718541459E-9    -2.7475708854656948E-9   -2.7707438393729376E-9   -1.884053447679691E-9    -9.212378817317547E-10   9.49601657481956E-10
4.6E-5                    1.3773071531913087E-9    -7.944492811678124E-10   -3.908770751143386E-9    -7.012062040252192E-9    -8.580893304617853E-9    -9.017397857294548E-9    -4.546015815568747E-9    -3.884881715547064E-9    -2.6311410319919236E-9   -1.5812348154961098E-9   7.286628635392936E-10
4.65E-5                   7.356604659990923E-10    -1.649852372142775E-9    -4.944489537255723E-9    -8.256150089404706E-9    -1.0148541868806261E-8   -1.0079136611543298E-8   -6.460594646548283E-9    -5.031175047304544E-9    -3.3949248958756667E-9   -2.2850599674591353E-9   4.4340605316819145E-10
4.7E-5                    -4.008098958468178E-11   -2.5854014081089473E-9   -5.962763027087085E-9    -9.379537618696995E-9    -1.155500446845092E-8    -1.0918996957138365E-8   -8.436232858908276E-9    -6.168270137446259E-9    -4.154049201919719E-9    -3.0112291759002297E-9   9.195933068211358E-11
4.7499999999999996E-5     -9.423788672914684E-10   -3.5803419726836832E-9   -6.923897535829382E-9    -1.0324388017140519E-8   -1.2718773802862639E-8   -1.1479889474992976E-8   -1.0410412097400531E-8   -7.251157163978132E-9    -4.882776817557971E-9    -3.7368245143208656E-9   -3.2365383637504946E-10
4.8E-5                    -1.956765712386296E-9    -4.604629142606024E-9    -7.779482816956714E-9    -1.1032345029457746E-8   -1.3566369015854289E-8   -1.1706848897574007E-8   -1.2308708762656514E-8   -8.231398828321729E-9    -5.549719626190673E-9    -4.437027719158954E-9    -7.957604458402656E-10
4.85E-5                   -3.0611929597137176E-9   -5.621478916767522E-9    -8.479311478461072E-9    -1.1444996988637046E-8   -1.4030611346502733E-8   -1.1546608866872737E-8   -1.404406780399116E-8    -9.058673440616592E-9    -6.1189235392419426E-9   -5.083549071075929E-9    -1.311332691428641E-9