% Model:              Untitled.mph
% Version:            COMSOL 6.0.0.405
% Date:               Jul 17 2025, 06:33
% Dimension:          1
% Nodes:              401
% Expressions:        11
% Description:        Point graph
% Time (s)                Displacement field, Y component Displacement field, Y component Displacement field, Y component Displacement field, Y component Displacement field, Y component Displacement field, Y component Displacement field, Y component Displacement field, Y component Displacement field, Y component Displacement field, Y component Displacement field, Y component
0                         -3.1010505494223326E-32  1.8499972348158052E-34   -6.217067712087882E-34   -2.0288797006744378E-35  -1.1237728349400654E-35  1.681292195745996E-29    4.7032212671671824E-30   1.0504799201499082E-33   1.5204571688919155E-35   3.486880685811228E-37    8.662134877384646E-38
5.0E-7                    -2.9189477490079605E-23  -4.457248969998331E-26   8.187418822746736E-26    2.261865074755705E-27    2.7632064468933115E-28   3.806967702454332E-21    6.697455690082499E-22    -1.2141188270757322E-25  -2.0069191340883418E-27  -4.392298876412723E-29   -1.1716933597695747E-29
1.0E-6                    2.231086912826937E-22    1.809559789508736E-25    1.4192907945599304E-26   4.3694903632186704E-27   1.2123745119905357E-26   -9.260488580469163E-20   -1.5339070785688903E-20  -2.656961380811492E-25   1.7668887753220488E-27   5.239054968789674E-30    4.9081711619607685E-30
1.5E-6                    -6.1456625913437385E-22  -3.306933559668404E-26   -8.30065392915646E-25    -4.72699975109527E-26    -6.019850131763693E-26   3.699641424574013E-19    7.346921300331934E-20    2.4873858382028687E-24   6.950301999023911E-27    1.6365628772080133E-28   7.7394255301992E-29
2.0E-6                    -3.268713601206157E-22   -2.3630065003446544E-24  2.5202950611823773E-24   1.5198951502870639E-25   9.961287719632595E-26    -3.84302972524533E-19    -1.3517932840319686E-19  -1.79212042623531E-24    -1.310274549357749E-26   -3.2375672449529183E-28  -4.430744949028019E-28
2.4999999999999998E-6     2.8705947072652853E-21   1.5299370780298268E-24   -5.046037139825066E-24   -1.9095557419518146E-25  6.762408046809406E-26    -5.065380014080015E-19   -3.2319729995347174E-20  -7.272140359787325E-27   -4.515075834360921E-26   1.1484882262364763E-27   1.3537291451182197E-27
3.0E-6                    -7.425784069785521E-22   -5.942078559936029E-24   1.2690511062261836E-23   6.487448145110113E-26    -2.057145274958527E-25   1.077815081883273E-18    5.075522970530383E-19    -6.400702687742211E-23   -1.24094377599757E-25    -5.8290982971252504E-27  -1.4692175280109032E-27
3.5E-6                    -4.694084476179035E-21   -1.0062037916770799E-22  -2.274450298689901E-23   -7.009507309454262E-26   -7.753958165533909E-25   -1.2236063434085734E-18  -6.377165168334474E-19   3.259625973683829E-22    1.1678862313481391E-24   4.401245017129337E-27    -5.817005481501935E-27
4.0E-6                    -2.7426765039268848E-21  -8.783297656031934E-23   -1.654803810374475E-22   -2.9020825223633524E-24  5.521251674006256E-25    7.289756520330845E-18    -3.0099169651045317E-19  4.521762861906566E-22    4.1728541702462444E-24   4.1718173746587765E-26   2.3234598538718348E-26
4.5E-6                    -7.009860437892987E-20   -1.031172054939943E-21   4.3107730249355695E-22   8.1424571332183E-24      6.308037052227812E-24    3.018937762621724E-18    2.3317120352044436E-18   -2.4185746457998234E-21  -2.8893706315389293E-24  -4.939750248772603E-26   -2.8753922601165483E-27
4.9999999999999996E-6     -5.417230950899912E-20   -3.9546604088640695E-21  3.3927325703281816E-22   1.6608435620899606E-23   -1.0342766915134175E-23  -6.156661722225915E-17   -2.278678728857178E-18   1.575124331286027E-21    -1.6061538551159027E-24  -2.19056439298254E-25    -1.4154155466183834E-25
5.5E-6                    5.800416435279849E-19    -8.129685134750841E-21   -4.626993559825589E-21   -7.1957126275768E-23     -2.99568432138757E-23    -2.961138378557924E-18   -4.6945672902382716E-18  1.998359902702187E-20    6.099443222073791E-23    5.592066117373904E-25    2.33485677794886E-25
6.0E-6                    2.408475036144912E-19    -3.7213195998148314E-20  -2.4063618027231005E-21  -9.078007274409706E-23   1.3914751224642584E-22   2.7215297281577575E-16   1.395211686746522E-17    1.5135882305254283E-21   1.1772290336098317E-23   2.1606621464022433E-25   4.123243219026391E-25
6.5E-6                    -5.043415657963071E-18   -1.3489526110616876E-19  1.7619873071209447E-20   4.0738758390488055E-22   1.4918994936536917E-22   1.1060522358750278E-16   1.553708550705656E-17    -3.991486368585071E-20   -1.4236112940099047E-23  -4.692888875405878E-24   -1.7555191965229153E-24
7.0E-6                    -8.882669204487989E-18   -3.4989021307043387E-19  -1.5110140639515588E-20  4.092018355481476E-22    -1.240019992335113E-21   -6.625688138696608E-16   -3.09125883860714E-17    1.5856504800641825E-19   1.9744400071105655E-21   8.499512527011379E-24    6.988128370166112E-25
7.499999999999999E-6      7.612309948364303E-18    -1.009056290982717E-18   -1.5149964377069298E-19  -2.2083798235300646E-21  -1.3253863197946102E-21  -4.33764759257499E-16    -8.603739394239882E-18   5.890438264120252E-19    5.477796389644052E-21    3.47325250048981E-23     7.783292079618413E-24
8.0E-6                    2.016251340591826E-17    -3.0434059990343592E-18  -1.6489545286268116E-19  -2.7773931008898094E-21  7.527650383815165E-21    1.2285646828982583E-15   1.6486711467734076E-16   5.902756161426958E-19    8.178681812840673E-22    -8.756591313203537E-23   -1.5741703563851768E-23
8.5E-6                    -7.845863627157749E-17   -8.337159514708573E-18   2.26944317864014E-20     7.251277464049325E-21    1.1457699355594151E-20   1.9207514854259455E-15   2.611729052326784E-16    9.599883065369408E-19    -4.006912582877985E-22   -2.296226150358136E-22   -2.208129714352912E-23
9.0E-6                    -3.0983778352937935E-16  -2.257242262226826E-17   -7.590669157266626E-19   6.982408891132544E-21    -3.295441310610281E-20   2.0832003228014466E-15   2.2672332192745975E-16   5.866640959445856E-18    8.171968710634619E-20    5.494331445866223E-22    1.1453917437849969E-22
9.499999999999999E-6      -4.2728335699582307E-16  -6.27462491689918E-17    -4.2233004414969415E-18  -3.7479991958304784E-20  -7.710398747837533E-20   3.72420396429983E-15     8.306995157891873E-16    1.885469692392188E-17    2.8708498084216986E-19   1.4571067936108098E-21   3.134289046299867E-23
9.999999999999999E-6      -4.733484440778719E-16   -1.6977993716293744E-16  -9.606653163147263E-18   -6.059450675717292E-20   9.296333069777516E-20    -1.7259008138115695E-16  2.6523467442783236E-15   4.144286769203931E-17    4.656053397503544E-19    -2.1566081535687676E-21  -6.00949002684715E-22
1.05E-5                   -1.7800732182939096E-15  -4.350672934026401E-16   -1.680622636861565E-17   -3.672707950877735E-21   3.787398450380695E-19    -7.11710575393733E-15    5.091950170781919E-15    9.346648667464573E-17    8.573278420873545E-19    -7.311183055759007E-21   1.500839197715611E-22
1.1E-5                    -6.213655780065734E-15   -1.075148862606213E-15   -4.3005218811524235E-17  -1.5842040375955778E-19  -1.2367527643783444E-19  2.9103848531999273E-14   1.0249221989395357E-14   2.469171189781885E-16    3.2599245436206526E-18   6.086051704262723E-21    2.8937078142532495E-21
1.15E-5                   -1.4320014360047297E-14  -2.630526697953106E-15   -1.3254791853592118E-16  -7.498271576373949E-19   -1.5531930958516747E-18  1.3641036590929083E-13   2.8033545802086717E-14   6.414830216052318E-16    1.026668165469525E-17    3.3136235383399215E-20   -1.1022488221886255E-21
1.2E-5                    -2.869113587454268E-14   -6.370250042896712E-15   -3.43223858871837E-16    -1.4663268453408955E-18  -7.461686956791946E-19   1.963880705174092E-13    6.890406915313773E-14    1.5337304103233605E-15   2.2903940840146555E-17   2.5958542689754964E-21   -1.2410225984043418E-20
1.2499999999999999E-5     -6.21563024822322E-14    -1.4957241183328606E-14  -8.017324733304622E-16   -3.924887430999006E-18   4.606957191504814E-18    6.291446982795418E-14    1.315016976885198E-13    3.568261274756163E-15    4.7562292994792434E-17   -9.527757173999645E-20   5.8635700958717716E-21
1.3E-5                    -1.3750077545214838E-13  -3.3730943418296366E-14  -1.9395793058831672E-15  -1.2476468499247689E-17  5.154894073857775E-18    -7.680084176666912E-15   2.2965086893670304E-13   8.314361520539114E-15    1.2316094216026514E-16   -4.38931049919772E-20    5.783476540138527E-20
1.35E-5                   -2.835918372735738E-13   -7.361461526212728E-14   -4.6843679403568945E-15  -2.5835282521032677E-17  -1.307540228891224E-17   6.875818593609341E-13    4.64441950131893E-13     1.8760652009950713E-14   3.489548675512431E-16    2.991218458619715E-19    2.164733219050769E-21
1.4E-5                    -5.614981956292641E-13   -1.5631679843724138E-13  -1.0452929225839784E-14  -4.5734468524618164E-17  -3.1033441807134566E-17  2.3723827655976206E-12   1.0277388853132214E-12   4.016271452653875E-14    8.699717463618872E-16    4.958788866914366E-19    -2.0576424156625693E-19
1.45E-5                   -1.105863083903986E-12   -3.211838461833456E-13   -2.2316160825530316E-14  -1.3647605143326658E-16  5.459003084454451E-18    3.936788405492828E-12    2.0577454732007053E-12   8.353132690449929E-14    1.8721702649478474E-15   1.3772461298700414E-19   -5.718091365142836E-20
1.4999999999999999E-5     -2.1027682870575227E-12  -6.348600800673357E-13   -4.910191232391314E-14   -4.441233534119295E-16   7.546409881592698E-17    4.083515919226381E-12    3.582031971573502E-12    1.7284213466707684E-13   3.8722082404714085E-15   1.722733943846673E-19    8.494447662129243E-19
1.55E-5                   -3.753240541323383E-12   -1.2096592634697813E-12  -1.0931129153698148E-13  -1.0418342779386566E-15  -4.453175688083788E-18   4.072867167113656E-12    5.8897871824606974E-12   3.5065874004479543E-13   8.5884061734105E-15      1.96218897699445E-18     1.0980592254762215E-18
1.6E-5                    -6.4367251368564206E-12  -2.2332445690727583E-12  -2.286299525283715E-13   -1.9100324737747893E-15  -3.500077090359283E-16   8.358934888553205E-12    1.002871178294367E-11    6.768395298957561E-13    1.9941653509153747E-14   5.277757963764065E-18    -1.202981977882611E-18
1.6499999999999998E-5     -1.0968757001257489E-11  -3.999834702254537E-12   -4.38727406581201E-13    -3.745700763184401E-15   -6.15150848200001E-16    2.0642293387689948E-11   1.744907910263179E-11    1.2321751998997471E-12   4.400262313417848E-14    1.2743655148900916E-17   -2.5127731517422095E-18
1.7E-5                    -1.8287731024531926E-11  -6.929981691967854E-12   -8.020616955880421E-13   -9.221143259407654E-15   -3.013013231491412E-16   3.894008307241629E-11    2.8586890531589737E-11   2.151527397591133E-12    8.846520637935003E-14    3.667454618854645E-17    5.7845510988579625E-18
1.75E-5                   -2.8350258877438428E-11  -1.1553801672216912E-11  -1.4605899950341114E-12  -2.2612424666606164E-14  -6.559303427692396E-17   5.625095746911152E-11    4.189738580535693E-11    3.682437918590367E-12    1.6650253066474697E-13   8.648703094756702E-17    2.1629636193415063E-17
1.8E-5                    -3.9470557376449896E-11  -1.835704094734497E-11   -2.6464854180774027E-12  -4.756643031889316E-14   -2.232632795353843E-15   6.730121382029393E-11    5.479211385337298E-11    6.202201949086577E-12    3.0914142222094077E-13   1.5162030114283974E-16   2.553176905772561E-17
1.85E-5                   -4.9450076041263136E-11  -2.73488833676656E-11    -4.610707918543963E-12   -8.86147603968469E-14    -8.424932876741595E-15   7.33505165283854E-11     6.541729951797532E-11    1.008406460251418E-11    5.778138615705809E-13    2.6874921034237187E-16   1.9329748276773665E-17
1.8999999999999998E-5     -5.7452649480409055E-11  -3.7488390164763423E-11  -7.545889072674834E-12   -1.6217736202123687E-13  -1.6665164814808626E-14  7.844176338563753E-11    7.283642964751152E-11    1.5356949101786153E-11   1.0583481728840617E-12   6.843204871795521E-16    7.13232374795125E-17
1.95E-5                   -6.392871870598203E-11   -4.6619715871101105E-11  -1.1592141413686155E-11  -3.0938595286159007E-13  -2.4666148265931912E-14  8.169665150856868E-11    7.558891759582613E-11    2.1333007100093497E-11   1.8365541294544466E-12   1.8530005234720678E-15   2.664921626942784E-16
1.9999999999999998E-5     -6.831276699089027E-11   -5.247697982453153E-11   -1.6793458097578103E-11  -5.912824414078812E-13   -4.059541166963553E-14   7.628084661587486E-11    7.136398605512404E-11    2.66685109678622E-11     2.9913315766828954E-12   4.078576103629748E-15    6.112718043654184E-16
2.05E-5                   -6.778312282265134E-11   -5.411307248146751E-11   -2.278793069998453E-11   -1.0646136330482053E-12  -8.912398028437511E-14   5.708903865013285E-11    5.89330446408697E-11     3.0153043492945115E-11   4.624493458029518E-12    7.468432150912512E-15    1.151790795470587E-15
2.1E-5                    -5.931320708801735E-11   -5.20839910241785E-11    -2.8457012627054815E-11  -1.7744610473975946E-12  -1.9917060850195064E-13  2.7169010284506056E-11   3.9604178055394604E-11   3.1606759425356444E-11   6.857387872142626E-12    1.3422313484961565E-14   2.327475640888696E-15
2.1499999999999997E-5     -4.250362932400184E-11   -4.68229766437895E-11    -3.220280625218583E-11   -2.7952196199476027E-12  -3.8410129049552855E-13  -5.730398590460701E-12   1.5557149915107674E-11   3.1663897109621604E-11   9.695842902125409E-12    2.7099075415390448E-14   5.068119653798649E-15
2.2E-5                    -1.9369906792385594E-11  -3.7097716634018404E-11  -3.298522997332601E-11   -4.267773247734855E-12   -6.505583143673591E-13   -3.8237861136414906E-11  -1.3219193800208822E-11  3.0378667673347755E-11   1.283080216078221E-11    5.746231495258538E-14    1.052272106189571E-14
2.2499999999999998E-5     8.600347042374836E-12    -2.0768250952618986E-11  -3.1069869273809343E-11  -6.309453358675897E-12   -1.0527766243623546E-12  -7.528829900364855E-11   -4.958403586386375E-11   2.6474220467624674E-11   1.5643724272128784E-11   1.1333170135154638E-13   2.0600088208164987E-14
2.3E-5                    4.253729634326521E-11    2.9035923555384866E-12   -2.7371399704980472E-11  -8.771528101662886E-12   -1.7451723077644967E-12  -1.2562060162656407E-10  -9.6974106650739E-11     1.8568158220341544E-11   1.756468667045192E-11    2.0192411671711233E-13   4.0159154104391747E-14
2.35E-5                   8.565859857855302E-11    3.252663731149017E-11    -2.1917974145775823E-11  -1.1067261426875881E-11  -2.9510459111819403E-12  -1.9507970967098014E-10  -1.5722688981307903E-10  6.782374015273084E-12    1.848483644209347E-11    3.3937613967947547E-13   7.872931740397316E-14
2.4E-5                    1.413333117327439E-10    6.66928981008361E-11     -1.3293367286848281E-11  -1.2383915134047416E-11  -4.829507678282963E-12   -2.835613719353604E-10   -2.3036231766060376E-10  -7.806959595340014E-12   1.8706425264681666E-11   5.683172280373333E-13    1.4909405943700375E-13
2.45E-5                   2.1108098704202666E-10   1.0638996897439262E-10   9.578133610024329E-14    -1.2253563901614749E-11  -7.343270265726574E-12   -3.854352321820778E-10   -3.1497332942108973E-10  -2.5326921048059676E-11  1.8339528089215782E-11   9.577095184176157E-13    2.661915417104073E-13
2.4999999999999998E-5     2.9318170035280327E-10   1.546446542532258E-10    1.837771256244111E-11    -1.0950013013581911E-11  -1.026046630694378E-11   -4.915679300900882E-10   -4.0786074389581763E-10  -4.7765076391934454E-11  1.6719120342440806E-11   1.5673770508577593E-12   4.5421575495248636E-13
2.55E-5                   3.8305222740056305E-10   2.1363576892660843E-10   4.026463373262581E-11    -9.184414569759524E-12   -1.3278080552069785E-11  -5.930288805469995E-10   -5.041000908486671E-10   -7.714652036226705E-11   1.2523930021392024E-11   2.398856435452638E-12    7.592660687966338E-13
2.6E-5                    4.756799035244387E-10    2.8226461230122047E-10   6.484568288040342E-11    -7.30465788231413E-12    -1.6066792713598096E-11  -6.855290010893721E-10   -5.98919349336141E-10    -1.1364115331985865E-10  4.640644018260491E-12    3.376765913295801E-12    1.2473267131711192E-12
2.65E-5                   5.678309842746955E-10    3.5636801374806605E-10   9.294347639416873E-11    -4.856166164226887E-12   -1.808609980317205E-11   -7.705150823360402E-10   -6.89743177587616E-10    -1.5553757687827503E-10  -6.960349987116259E-12   4.369475090661505E-12    1.9719597964382135E-12
2.7E-5                    6.577225106142842E-10    4.309370957193578E-10    1.2625838254382867E-10   -9.971488412638796E-13   -1.8373232445287022E-11  -8.504216674547715E-10   -7.753357194074068E-10   -2.0035205662944286E-10  -2.1243035504455838E-11  5.208785119604678E-12    2.928686377922386E-12
2.7499999999999998E-5     7.430248486649147E-10    5.020686207314496E-10    1.652560597403894E-10    4.774386732521293E-12    -1.576369937478636E-11   -9.218891120478922E-10   -8.521591932289773E-10   -2.459002793842761E-10   -3.719185171084116E-11   5.68903434330619E-12     4.031486462912225E-12
2.8E-5                    8.194824675368975E-10    5.672223096462665E-10    2.083888121248501E-10    1.2456229644005249E-11   -9.645798406934507E-12   -9.736040389506832E-10   -9.119989639228921E-10   -2.9113133778068194E-10  -5.498812961813854E-11   5.5968861465908666E-12   5.117794419682646E-12
2.8499999999999998E-5     8.806494155098697E-10    6.242302423437094E-10    2.53453364506525E-10     2.1979222147099675E-11   -5.932034075818559E-13   -9.905060851437673E-10   -9.438647648325178E-10   -3.360701635873606E-10   -7.594313191269399E-11   4.814600417365229E-12    5.954770799114353E-12
2.9E-5                    9.181652645286538E-10    6.701049959554769E-10    2.989095661923967E-10    3.3506297899198605E-11   9.947517909220723E-12    -9.594786669883332E-10   -9.378799910097634E-10   -3.800241617789055E-10   -1.0106839709668386E-10  3.4163516211490936E-12   6.250917422446565E-12
2.95E-5                   9.225694708552388E-10    6.999124191082507E-10    3.430573493048498E-10    4.7219783914652097E-11   2.080373149276598E-11    -8.712794480155493E-10   -8.863429893799279E-10   -4.1945407497544203E-10  -1.297977811866583E-10   1.6118506559994002E-12   5.740002461513942E-12
2.9999999999999997E-5     8.842775533601426E-10    7.059016646855319E-10    3.822938247154731E-10    6.303199455183084E-11    3.1915624919116276E-11   -7.188387745428578E-10   -7.812625180595704E-10   -4.4828831878144707E-10  -1.6027566132001724E-10  -4.638915123683412E-13   4.36540523336408E-12
3.05E-5                   7.93876191073205E-10     6.780871898667816E-10    4.115238156389851E-10    8.062779366832313E-11    4.4008021231335896E-11   -4.958374875240216E-10   -6.129349681564642E-10   -4.606704085122503E-10   -1.9070381431824548E-10  -2.9084316476644068E-12  2.420308589317579E-12
3.1E-5                    6.42367661769489E-10     6.07022730395898E-10     4.2702968446174625E-10   9.960056369688966E-11    5.759374442218252E-11    -1.9764645208928828E-10  -3.727901767935114E-10   -4.528612872234476E-10   -2.2002810470760928E-10  -5.975160314344684E-12   3.980348060236144E-13
3.15E-5                   4.226402506417953E-10    4.868548935547404E-10    4.281493310337695E-10    1.193426966788443E-10    7.248809227999518E-11    1.7715148691775262E-10   -5.741664727286263E-11   -4.2233786286830615E-10  -2.473279020293356E-10   -9.845652385956964E-12   -1.4843554830019717E-12
3.2E-5                    1.310891097178039E-10    3.15464890519984E-10     4.147843867950357E-10    1.3887190951246904E-10   8.819724704278794E-11    6.270915614216781E-10    3.31368996705146E-10     -3.6591769517160506E-10  -2.7094491001611575E-10  -1.4512607811822244E-11  -3.710383302327775E-12
3.25E-5                   -2.328318809076311E-10   9.138507087282557E-11    3.8304061972613955E-10   1.569256579164895E-10    1.0444975947181386E-10   1.149651909543914E-9     7.902774544014662E-10    -2.7946549185250985E-10  -2.883934523778318E-10   -1.9895078172282596E-11  -7.310022075856378E-12
3.2999999999999996E-5     -6.684341330763567E-10   -1.887857946523825E-10   3.244792115093755E-10    1.7220352302015532E-10   1.2115125850484506E-10   1.7418231859598014E-9    1.3170330026495588E-9    -1.592226883613024E-10   -2.968713371326673E-10   -2.6023013491869702E-11  -1.3057997850232597E-11
3.35E-5                   -1.1740232563072237E-9   -5.289320183729025E-10   2.3073872161908568E-10   1.833928208966073E-10    1.3785483882039717E-10   2.3974863043957302E-9    1.9083111411019093E-9    -3.1284655805847763E-12  -2.936118649970048E-10   -3.303465953729708E-11   -2.0684074657817298E-11
3.4E-5                    -1.7447413686788416E-9   -9.290943115805876E-10   9.880331398303074E-11    1.8893446043226906E-10   1.5330197459650883E-10   3.102945125270409E-9     2.5551159793556222E-9    1.8890122840625316E-10   -2.7576793526308844E-10  -4.092937716280285E-11   -2.8939159335759113E-11
3.45E-5                   -2.3702199504520725E-9   -1.3827423480525437E-9   -6.875010221475879E-11   1.868034656993475E-10    1.654089162723656E-10    3.834415991214716E-9     3.239757781973623E-9     4.1565140326706986E-10   -2.400925635027124E-10   -4.9298394679580195E-11  -3.660989708734906E-11
3.5E-5                    -3.033894444870144E-9    -1.877747822983561E-9    -2.6820025269364557E-10  1.7449993494439468E-10   1.7174188556716426E-10   4.5598595365754715E-9    3.936454240483699E-9     6.754492532065614E-10    -1.8292604029769485E-10  -5.73201436524419E-11    -4.355354859985709E-11
3.5499999999999996E-5     -3.7136304335226336E-9   -2.3986963050783865E-9   -4.982569031736119E-10   1.4927513415206136E-10   1.702625100925298E-10    5.243147651513957E-9     4.614187173370393E-9     9.659967537038064E-10    -1.0087116620636272E-10  -6.406516575124647E-11   -5.0678842161924343E-11
3.6E-5                    -4.382352614681224E-9    -2.9278695864703196E-9   -7.59064753119631E-10    1.0861530163864307E-10   1.5986653425616278E-10   5.846318270238029E-9     5.2388799736853155E-9    1.2826720116193766E-9    8.115647635239687E-12    -6.885108661028001E-11   -5.882065889481782E-11
3.65E-5                   -5.008167559812005E-9    -3.4452453619526776E-9   -1.0485947988433704E-9   5.0944499421041064E-11   1.4021362017943987E-10   6.3287084221229915E-9    5.773592970938808E-9     1.6164915415278465E-9    1.441460169420636E-10    -7.135810933290786E-11   -6.760379361819051E-11
3.7E-5                    -5.5547427865910315E-9   -3.928404886198786E-9    -1.3603342216221663E-9   -2.3814968800687754E-11  1.1084400556195852E-10   6.646077359007227E-9     6.17835113777861E-9      1.9536901427591225E-9    3.058558636860133E-10    -7.147232836658254E-11   -7.540511868684527E-11
3.75E-5                   -5.982731861380126E-9    -4.351329189885422E-9    -1.683303060014522E-9    -1.1442602481818047E-10  7.029548577593896E-11    6.752548126989138E-9     6.4114279195521966E-9    2.2773730002970816E-9    4.911880694240292E-10    -6.904186272798508E-11   -8.039097705330973E-11
3.7999999999999995E-5     -6.2515007374346236E-9   -4.682103223009306E-9    -2.002939996958415E-9    -2.1942633097135545E-10  1.612488357441715E-11    6.604207700233506E-9     6.431267384317345E-9     2.5696768365744976E-9    6.974204789827043E-10    -6.370877818064387E-11   -8.156397641846428E-11
3.85E-5                   -6.319849243134607E-9    -4.882948998840167E-9    -2.3021036470340584E-9   -3.3823914818393815E-10  -5.395391892341041E-11   6.161481409348094E-9     6.197387424672409E-9     2.812682601344248E-9     9.204246228437965E-10    -5.4861549912805394E-11  -7.885656719895375E-11
3.9E-5                    -6.146458273508713E-9    -4.914947117042078E-9    -2.562558797772065E-9    -4.709270182897939E-10   -1.4064945364199769E-10  5.389833232375952E-9     5.671137261985002E-9     2.9877984186978986E-9    1.1541088398511063E-9    -4.1700425513869194E-11  -7.232969016057602E-11
3.95E-5                   -5.6922208744114605E-9   -4.7440834863856745E-9   -2.76648602868112E-9     -6.163143610361577E-10   -2.4259490808955595E-10  4.260902448727122E-9     4.8185469904160335E-9    3.074782900214517E-9     1.3905659160299426E-9    -2.3378917902747367E-11  -6.13669277329145E-11
3.9999999999999996E-5     -4.92438689954589E-9     -4.343414991878759E-9    -2.8967044946955078E-9   -7.700561280932703E-10   -3.5716276852283706E-10  2.755667326728761E-9     3.6150385598864105E-9    3.051945893626091E-9     1.6203923652853938E-9    8.614276709038403E-13    -4.4644655124252983E-11
4.0499999999999995E-5     -3.81976208608918E-9     -3.6914800881927782E-9   -2.9356226351467738E-9   -9.245908625174192E-10   -4.817023426388012E-10   8.688985226754186E-10    2.0492193459156058E-9    2.8981002063078538E-9    1.8324828214439248E-9    3.163922303246336E-11    -2.0856165410602258E-11
4.1E-5                    -2.3654610646424436E-9   -2.771690043190304E-9    -2.8647132740885776E-9   -1.071070859586965E-9    -6.139162761021415E-10   -1.387317627184735E-9    1.239981043911563E-10    2.595135851190276E-9     2.0134803293341477E-9    6.947500391976336E-11    1.0501863500245019E-11
4.15E-5                   -5.589801135435396E-10   -1.5747389724665393E-9   -2.665722474801623E-9    -1.2013574391634814E-9   -7.510156323119486E-10   -3.9826873120720935E-9   -2.1438797820947428E-9   2.1294692117718094E-9    2.1478047882216055E-9    1.1486321810115454E-10   4.89626846031398E-11
4.2E-5                    1.590106310094289E-9     -1.0090184262303147E-10  -2.3226445294176862E-9   -1.3082772028449823E-9   -8.884938516734022E-10   -6.869974558082251E-9    -4.723530899636541E-9    1.4921716637945225E-9    2.2188108949026355E-9    1.6820900352411788E-10   9.366754052442262E-11
4.2499999999999996E-5     4.056814689581248E-9     1.6403443642502764E-9    -1.8229196113578197E-9   -1.3842641406356819E-9   -1.019592200025873E-9    -9.98590483806759E-9     -7.567707807153843E-9    6.793070520226952E-10    2.2104769812489424E-9    2.2941898733597327E-10   1.4422031647932728E-10
4.2999999999999995E-5     6.797603778440719E-9     3.6307116071540567E-9    -1.1579756029040492E-9   -1.4200609923003752E-9   -1.1357618647931279E-9   -1.324970157014638E-8    -1.060979054497644E-8    -3.066830042340197E-10   2.108438782170913E-9     2.9720073022607737E-10   2.0112229880863597E-10
4.35E-5                   9.749070368580677E-9     5.8394293104074936E-9    -3.244215809341074E-10   -1.40484898193207E-9     -1.227622504812946E-9    -1.6560333361373638E-8   -1.3762466643482351E-8   -1.4555852564282324E-9   1.8999584159136046E-9    3.686064598996978E-10    2.6533838116213086E-10
4.4E-5                    1.2828734345730028E-8    8.216860087708937E-9     6.738718462101071E-10    -1.3275588703785812E-9   -1.2857673074879571E-9   -1.9795776868957868E-8   -1.691934397092014E-8    -2.748912351996407E-9    1.5736727881729586E-9    4.394000889167538E-10    3.3713644694692474E-10
4.45E-5                   1.593677028901308E-8     1.0691645011811391E-8    1.8241820515659774E-9    -1.1779800927650302E-9   -1.3011311668257747E-9   -2.2816264412265168E-8   -1.9958167267041486E-8   -4.1595242547732766E-9   1.1201526540805849E-9    5.051165945239817E-10    4.149026605414765E-10
4.4999999999999996E-5     1.8957549444057296E-8    1.3174611368915761E-8    3.10491591845698E-9      -9.469165067838445E-10   -1.2650313256985163E-9   -2.5470329243378458E-8   -2.2743765620457162E-8   -5.650718802685637E-9    5.332984101066192E-10    5.619619718359656E-10    4.947059809997546E-10
4.5499999999999995E-5     2.1761275717452782E-8    1.556539582876964E-8     4.486415914668718E-9     -6.263182939192617E-10   -1.1691467745204822E-9   -2.7601142656026163E-8   -2.5131063657253375E-8   -7.175877434264296E-9    -1.8820740604740327E-10  6.068745974815644E-10    5.708563062713737E-10
4.6E-5                    2.4206883145362026E-8    1.7756030405242327E-8    5.930973572919701E-9     -2.1081975672719442E-10  -1.0056753765046465E-9   -2.905196974960348E-8    -2.6969983766237694E-8   -8.679627331090949E-9    -1.0399003080777659E-9   6.36902516111266E-10     6.370317735797131E-10
4.65E-5                   2.6146655277371978E-8    1.9631466707863017E-8    7.391728098081389E-9     2.9957284025254467E-10   -7.678314048105545E-10   -2.9671433368183203E-8   -2.8112450647624767E-8   -1.0099395889897063E-8   -2.010821828813894E-9    6.485419333820536E-10    6.873058054448478E-10
4.7E-5                    2.7432153391363933E-8    2.1071570378705625E-8    8.812067692046676E-9     8.978441735860349E-10    -4.50731934318677E-10    -2.931990279550359E-8    -2.8419409793496884E-8   -1.1366093390679963E-8   -3.0828065369328858E-9   6.37470642760871E-10     7.166551308159691E-10
4.7499999999999996E-5     2.7921012687624625E-8    2.1956437421301094E-8    1.012738795308516E-8     1.5710987218466362E-9    -5.249186004949968E-11   -2.7877594256107022E-8   -2.77662687766097E-8     -1.2405117550715312E-8   -4.229851819829942E-9    5.987338335223257E-10    7.209214370188454E-10
4.8E-5                    2.7484108251469558E-8    2.2171993090424945E-8    1.1269088764662131E-8    2.303389345140702E-9     4.249001926515536E-10    -2.5253541353195006E-8   -2.6047837676603754E-8   -1.3139634282504602E-8   -5.417910952772649E-9    5.273105144842398E-10    6.964506469282943E-10
4.85E-5                   2.601233711704625E-8     2.161342058353003E-8     1.2168495668302964E-8    3.0772446038681784E-9    9.752952367256045E-10    -2.1393578875625746E-8   -2.3185009107949854E-8   -1.3495436025029706E-8   -6.605370287821611E-9    4.1892089915939504E-10   6.397099772611751E-10