% Model:              Untitled.mph
% Version:            COMSOL 6.0.0.405
% Date:               Jul 16 2025, 22:24
% Dimension:          1
% Nodes:              401
% Expressions:        11
% Description:        Point graph
% Time (s)                Displacement field, Y component Displacement field, Y component Displacement field, Y component Displacement field, Y component Displacement field, Y component Displacement field, Y component Displacement field, Y component Displacement field, Y component Displacement field, Y component Displacement field, Y component Displacement field, Y component
0                         1.4817313764908572E-32   7.54777297756644E-33     9.085764964135206E-33    1.2041802797679416E-32   1.6794846233483499E-34   -8.993981372200902E-36   1.893101012632055E-34    -7.333510292000294E-32   -1.8260436135156534E-34  -5.785604873634228E-35   -6.149914754985797E-36
5.0E-7                    -5.763847973842835E-24   1.8358240111096918E-26   -1.7231054311614205E-24  2.6626096589024543E-24   -2.0686215549358586E-26  1.5856585254372933E-25   5.634175173180922E-25    2.35338065301424E-23     -5.100090963120998E-26   -5.50025697792178E-26    -5.100663181652548E-27
1.0E-6                    2.8303050584126987E-24   3.1754672798810846E-24   5.744809716406045E-24    -2.821983353659296E-23   2.318750554830179E-26    -1.3554297289811948E-24  -5.249486150523612E-24   -5.0944724946649545E-24  6.149356285024212E-25    4.78394543420163E-25     4.647411011111457E-26
1.5E-6                    1.0753521685805993E-23   -6.346144286405778E-25   1.0831389292627028E-23   5.452390016321552E-23    1.2431032913003512E-25   3.1839908341132982E-24   1.3639093025085495E-23   -1.352633371384232E-22   -1.6391668756110892E-24  -1.0176664026254283E-24  -8.986954971366254E-26
2.0E-6                    2.711355466729428E-22    -1.3564753868792565E-22  -9.758895839025405E-23   3.584615204632367E-23    -6.325305674834213E-25   6.368876900983581E-24    1.1839625357015215E-23   -5.1467507740002056E-23  -6.133666130664439E-25   -1.8334970942371926E-24  -1.6814220204551026E-25
2.4999999999999998E-6     7.080098741116492E-22    5.502563480308531E-23    1.0629746941588432E-22   -6.811506336185602E-23   1.472964666380737E-24    -3.769742181156639E-23   -8.871448443182034E-23   -2.178672160055434E-21   5.758597592736942E-24    7.081532575087915E-24    4.180472168175024E-25
3.0E-6                    -6.22739316980447E-21    1.5004442821300478E-21   4.572140823766086E-22    -2.2544343964826835E-22  -1.5067831774385228E-24  4.703483422699252E-25    -5.143281203486133E-23   7.246574533943103E-21    1.1250306231438018E-23   1.41561156708157E-23     1.2158749307709875E-24
3.5E-6                    -5.686304366730016E-21   1.526649994792736E-21    -4.635716044956681E-22   -2.4945903273271402E-22  -4.763683617942297E-24   2.350021352739252E-22    5.140843309592638E-22    2.1038214963486843E-20   -2.5961421296479038E-23  -4.4614428021296076E-23  -1.5532364825519508E-24
4.0E-6                    5.87633670317536E-20     -1.1923671104595459E-20  -3.2885832913190925E-21  -2.2855870724093337E-21  1.1174492007692044E-23   -8.127492757999345E-23   3.153968852672025E-22    -5.010869726256554E-20   -9.871365962601284E-23   -1.0632354556318179E-22  -7.07989748139718E-24
4.5E-6                    6.053735055653561E-20    -2.5101665409647395E-20  1.3358792051462926E-21   1.2211082864864622E-20   1.8560798066313704E-23   -1.396084150971172E-21   -2.541546438614569E-21   -1.7564365504828132E-19  3.8638390665022606E-23   2.0104034436487177E-22   2.873324795405925E-24
4.9999999999999996E-6     -3.4247880217066094E-19  5.99492133338051E-20     2.0166382897803986E-20   3.0938976241006626E-20   -1.8821004664104345E-23  3.1005149917487107E-22   -2.12970619956428E-21    1.1059539713023685E-19   6.098652358496821E-22    6.849100836889587E-22    2.950712261602032E-23
5.5E-6                    -5.026353131246844E-19   2.659005377862826E-19    3.0686629342574334E-20   -1.293883976913785E-19   -9.348244360234279E-24   7.91494153522837E-21     9.84499669687388E-21     8.31598200582251E-19     7.008735262043284E-22    -4.1942985244205672E-22  7.545600278504307E-24
6.0E-6                    1.7858102885557703E-18   -1.936473277501716E-20   -5.737493480145618E-20   -2.2248101885043357E-19  -9.444291416918849E-23   1.742240482883161E-21    1.4529975691979785E-20   -2.8223775423821717E-19  -2.452655336643667E-21   -3.5680674167149325E-21  -9.360106269670134E-23
6.5E-6                    4.3437002417015204E-18   -1.3714242792442767E-18  -2.8592702678238194E-19  8.543484821222143E-19    2.6369224637019747E-23   -3.8314455894207885E-20  -2.691052464998504E-20   -4.621372664106287E-18   -7.5019029674139E-21     -1.7299295141226482E-21  -5.074186750463063E-23
7.0E-6                    -4.7888806104324635E-18  -2.7800931750153203E-19  2.1344585879246942E-19   1.4208703977588722E-18   2.379625099566876E-21    -3.396426981387781E-20   -7.856049145588291E-20   -3.9055722699136814E-18  1.6511707938381909E-21   1.3362136347354599E-20   2.7281288287072623E-22
7.499999999999999E-6      -2.0596657455446186E-17  8.73197273162405E-18     2.139019465664968E-18    -4.1653263916832754E-18  -1.502492839128869E-21   1.4148361156410845E-19   2.167596334496823E-20    9.404566344064987E-18    4.0072153432155954E-20   2.158522986906432E-20    3.127708772199146E-23
8.0E-6                    1.3528424899774789E-17   1.178179857853731E-17    5.798852724349052E-19    -8.146351417233144E-18   -2.2245593632617478E-20  2.629511117725717E-19    2.9741571789341563E-19   9.118011300027061E-19    5.238489878940179E-20    -2.6977995209774922E-20  -1.2049863937173798E-21
8.5E-6                    1.0991704837301032E-16   -2.103196208067837E-17   -7.064602730569656E-18   1.6006155119674414E-17   2.1273089717896577E-20   -3.0800610771530064E-19  2.430752625628453E-19    -8.592341963254185E-17   -1.0645168906627678E-19  -1.0981484392249621E-19  2.2834330751734597E-22
9.0E-6                    7.983293001209248E-17    -3.841600938589417E-17   5.6288936806872524E-18   4.291133505570566E-17    2.0009829094410867E-19   -1.2822900980578998E-18  -6.435275055188939E-19   -1.7864932364984546E-16  -3.7728418416672975E-19  -3.929276480561108E-20   6.854179914426855E-21
9.499999999999999E-6      -1.7890873271130124E-16  1.3432246423050573E-16   5.619871746430322E-17    -3.8378343222996594E-17  5.783738413216846E-20    -2.204646644639127E-19   -1.3920915203705252E-18  -1.0293491667899811E-16  -9.251198692163161E-20   3.124455037006672E-19    3.5928737779253426E-21
9.999999999999999E-6      -5.832302474958752E-17   4.724832970955221E-16    4.195655485442998E-17    -1.769690294179637E-16   -7.878572863356383E-19   4.148137022576393E-18    -8.117410519261145E-20   -1.6431528235996608E-16  1.2714709373758254E-18   5.326768957570689E-19    -2.9245883502904064E-20
1.05E-5                   1.2300139933286945E-15   4.448345549799187E-16    -1.039398517393037E-16   3.496181598821483E-17    -1.7126005022637628E-19  5.3584198275198365E-18   2.909959018745789E-18    -1.5404812541954249E-15  1.991000093584272E-18    -2.2799133590274687E-19  -4.574965510582035E-20
1.1E-5                    2.915073437460048E-15    -6.663753362173203E-17   8.24782729477882E-17     6.51724327231326E-16     4.421468551545173E-18    -6.5239796010550766E-18  5.148237456450978E-18    -5.108444159842592E-15   -1.3700000926090538E-18  -1.9024882672987494E-18  6.624421422476375E-20
1.15E-5                   3.453819308012288E-15    9.683065770676015E-16    1.2503096743595211E-15   4.94416006091769E-16     6.3412452362157416E-18   -2.2553699037300132E-17  4.94266585817671E-18     -1.0187653342778646E-14  -7.573965384654953E-18   -2.119432687313323E-18   2.425817841319645E-19
1.2E-5                    5.541117961893281E-15    6.814556430524361E-15    2.526225276072543E-15    -1.2503612075236761E-15  -2.0749406097664893E-18  -6.825052408169339E-18   -6.813311055382079E-18   -1.830744545318704E-14   -6.5855824457665715E-18  2.2547100404172393E-18   5.120349280192531E-20
1.2499999999999999E-5     1.891542890991418E-14    1.764576327413316E-14    2.0729769552300805E-15   -1.798108166922696E-15   8.90262604324521E-18     5.478366405461437E-17    -4.353365599036554E-17   -4.280996179997415E-14   9.730796749298792E-18    9.408753513984707E-18    -7.138336857701526E-19
1.3E-5                    5.4997006767633064E-14   3.091861387951037E-14    3.1883472696243597E-15   3.2631380200277797E-15   9.334584967466749E-17    9.391042674443999E-17    -5.68518802205006E-17    -1.1344022255569102E-13  2.989600813346275E-17    8.256445712222537E-18    -9.883633209935124E-19
1.35E-5                   1.210835521947879E-13    5.3758267487740126E-14   1.781046873632808E-14    1.1415285726794238E-14   2.1442197565854033E-16   1.2598948306046196E-17   8.990718687338248E-17    -2.6717854632966083E-13  2.373070138739034E-17    -1.2654660678829909E-17  8.207958631004402E-19
1.4E-5                    2.330829409278952E-13    1.177905530516273E-13    5.532209805985258E-14    1.2270040113606287E-14   2.9430387966711234E-16   -1.4548951640883464E-16  3.6425577095047484E-16   -5.492554822187071E-13   -3.147282366322873E-17   -4.110393108130662E-17   3.5494194557543706E-18
1.45E-5                   4.587247017761617E-13    2.814142980243849E-13    1.10868456469974E-13     6.167295543560346E-15    7.110241679345293E-16    -1.1798798629353096E-16  2.598880379652623E-16    -1.0739645086718758E-12  -1.1442561594146296E-16  -3.1519423549660586E-17  2.215064102267017E-18
1.4999999999999999E-5     9.671906536944504E-13    6.26718952180483E-13     1.915054234311052E-13    2.3490697698657987E-14   2.6244265992487778E-15   4.0612856220659696E-16   -6.493467054641642E-16   -2.1382749116878285E-12  -1.291393405567527E-16   5.063266110630792E-17    -5.586083019609497E-18
1.55E-5                   2.026061311241635E-12    1.2688991814149037E-12   3.781894515648458E-13    1.0857850900616074E-13   7.174040395403482E-15    1.526836084615243E-15    -1.3876717608164101E-15  -4.273461774381872E-12   5.224014714614307E-17    1.5260382909530977E-16   -1.18446331133602E-17
1.6E-5                    3.9579628770360965E-12   2.382971332877239E-12    8.510724124817918E-13    2.7336394978269103E-13   1.5036730660661602E-14   3.028286169563929E-15    1.5855148855115842E-16   -8.159460686240086E-12   3.8287158953508143E-16   1.2565991802011283E-16   -3.610895504943079E-18
1.6499999999999998E-5     7.219675766121415E-12    4.285727071635968E-12    1.8299144662387105E-12   4.969725852641967E-13    3.03186090053679E-14     4.636924476990019E-15    4.048878775891483E-15    -1.4554175164580983E-11  4.540041974387672E-16    -1.4925084404796007E-16  1.786797908960533E-17
1.7E-5                    1.2644394904584526E-11   7.64057277794027E-12     3.512162901771212E-12    8.415670156886511E-13    6.850064707644456E-14    7.297090980214855E-15    6.204584568308304E-15    -2.4370660103697473E-11  -2.114980976859288E-16   -5.575105572989517E-16   2.890625692965292E-17
1.75E-5                   2.1398594830599086E-11   1.361867000265014E-11    6.163884938810819E-12    1.599096164996415E-12    1.597802724318319E-13    1.6070894582264265E-14   2.6535802321079953E-15   -3.848002392603299E-11   -1.4712870322212702E-15  -6.319293437080043E-16   5.380894319680572E-18
1.8E-5                    3.4165648700612064E-11   2.3432048766898226E-11   1.0387320557129085E-11   3.234728050292579E-12    3.436170467656479E-13    4.251447422714299E-14    -3.2721855216881486E-15  -5.660039640222364E-11   -2.4315692166018885E-15  1.8943207425714085E-16   -4.583483466405922E-17
1.85E-5                   5.009502589118619E-11    3.691965259790562E-11    1.7243818076182485E-11   6.089102941975323E-12    6.731481064387212E-13    1.0161056338684805E-13   -6.012456506621374E-16   -7.588688394120746E-11   -2.192024072492242E-15   1.6944750488347658E-15   -8.690103020030107E-17
1.8999999999999998E-5     6.685841958590065E-11    5.131815492605752E-11    2.7615241491156977E-11   1.0261218626059572E-11   1.2551578248504064E-12   2.0507572117323603E-13   2.1231599206634277E-14   -9.13612878697083E-11    -5.376887440009752E-16   2.0894583774882362E-15   -8.295498543565763E-17
1.95E-5                   8.199355783393871E-11    6.233325982649193E-11    4.069331984461979E-11    1.6001959185536356E-11   2.30058160416263E-12     3.6879811758436214E-13   6.512625199078007E-14    -9.903495913533874E-11   1.1322854033730643E-15   -9.056643382835367E-16   -2.756445280740482E-17
1.9999999999999998E-5     9.380663258030837E-11    6.761293510671707E-11    5.308279078424417E-11    2.3998194395991114E-11   4.0924217403150005E-12   6.496985028255287E-13    1.253706505135659E-13    -9.869534062929992E-11   -2.6311601831353402E-15  -6.608185430725745E-15   5.107415947499082E-17
2.05E-5                   1.0057678762420719E-10   6.889140523928512E-11    6.065226757731775E-11    3.457972643079833E-11    6.824895350283907E-12    1.182874790234564E-12    1.9447124271102504E-13   -9.236042409635795E-11   -2.1275664877871155E-14  -9.58723020061947E-15    4.6040801413384855E-17
2.1E-5                    9.941807368921919E-11    6.906506195924536E-11    6.231694907841344E-11    4.642132485836108E-11    1.0456163026886713E-11   2.150214359039341E-12    2.878233103179719E-13    -7.961887022167797E-11   -5.86377101137951E-14    -4.696985898213871E-15   -2.943960690918725E-16
2.1499999999999997E-5     8.681531089692363E-11    6.659133243893228E-11    6.094668013938938E-11    5.675743982389956E-11    1.478251824922851E-11    3.6671121278418135E-12   4.844384931531837E-13    -5.616447888766425E-11   -1.0250731759066824E-13  3.819175631583203E-15    -1.2343913266771213E-15
2.2E-5                    6.02503058181897E-11     5.453871087140778E-11    5.868775707853411E-11    6.34642920636553E-11     1.9639642191190416E-11   5.697037871440431E-12    9.339222179774274E-13    -1.829160666427074E-11   -1.404479861528986E-13   7.241383283403953E-16    -2.637970148521095E-15
2.2499999999999998E-5     1.8736039208195327E-11   2.688842029600723E-11    5.2039265079676374E-11   6.635409320577114E-11    2.4834688431177017E-11   8.104024391080894E-12    1.7766374540150799E-12   3.255048103496279E-11    -2.0412889721013477E-13  -2.8340076368982063E-14  -3.938856344422567E-15
2.3E-5                    -3.7695377177631534E-11  -1.5050640841919378E-11  3.420669884176698E-11    6.572584568234356E-11    2.977319058906818E-11    1.075903585595705E-11    3.0301884190938932E-12   9.199946344577208E-11    -3.8761995729468963E-13  -8.32033500162004E-14    -5.38659574917158E-15
2.35E-5                   -1.0747322626558265E-10  -6.423229731189147E-11   2.495786105085787E-12    6.020547264347383E-11    3.342345887587964E-11    1.3503100173965572E-11   4.5873034147307446E-12   1.592666922350471E-10    -7.908198695559677E-13   -1.5201729675142922E-13  -9.775511943094536E-15
2.4E-5                    -1.8625270998434367E-10  -1.1542353684713174E-10  -3.953482697294493E-11   4.6770956012719065E-11   3.497727497265043E-11    1.5993906642287875E-11   6.365660174517941E-12    2.390127642365114E-10    -1.4416131393256437E-12  -2.325379459750554E-13   -2.206281561728225E-14
2.45E-5                   -2.6821860523905134E-10  -1.694232524675088E-10   -8.778934968002066E-11   2.2236388186407685E-11   3.4377613446070484E-11   1.7729702657248058E-11   8.430386708227095E-12    3.360816941003294E-10    -2.3135861679179472E-12  -3.5427237858578385E-13  -4.6686833047176296E-14
2.4999999999999998E-5     -3.5036555209121845E-10  -2.3006408223492728E-10  -1.4171988751035598E-10  -1.5957033964082344E-11  3.177798827897303E-11    1.8352472042381867E-11   1.0882536783167002E-11   4.5000715693242354E-10   -3.4464892802476457E-12  -5.852359974670659E-13   -8.771348203806142E-14
2.55E-5                   -4.34806933718378E-10    -2.9932709779474574E-10  -2.0098742545512036E-10  -6.876799093312056E-11   2.653620836655703E-11    1.7868041391910186E-11   1.3567371994762321E-11   5.751796765489857E-10    -5.0073103499545695E-12  -1.0228512274409754E-12  -1.5566717760728128E-13
2.6E-5                    -5.254969703195814E-10   -3.761376095400613E-10   -2.62293841082548E-10    -1.331721478954288E-10   1.7058285303449872E-11   1.641688066313989E-11    1.5907233216039483E-11   7.042430564881388E-10    -7.150841210081251E-12   -1.7738669403804647E-12  -2.7439210377511323E-13
2.65E-5                   -6.232975300192426E-10   -4.577452432386795E-10   -3.23366580493471E-10    -2.018045714355986E-10   1.4780863528340617E-12   1.3772564202531903E-11   1.7089266522706837E-11   8.297356140956979E-10    -9.771355647292125E-12   -2.9195828122540583E-12  -4.78067528337486E-13
2.7E-5                    -7.255397551621458E-10   -5.40086877563381E-10    -3.8717689525193194E-10  -2.6830564768678615E-10  -2.1616911816107174E-11  9.086997747830313E-12    1.6491916952076064E-11   9.439738655928612E-10    -1.240544874140568E-11   -4.4653505787054045E-12  -8.059494503406496E-13
2.7499999999999998E-5     -8.289550180265046E-10   -6.174574462707887E-10   -4.5739826485525385E-10  -3.3370678632164367E-10  -5.22063380146393E-11    1.1810865973556682E-12   1.3962266002188339E-11   1.0398545258567075E-9    -1.442743343062132E-11   -6.300111411651035E-12   -1.3168321161866755E-12
2.8E-5                    -9.292836018892786E-10   -6.841362599128238E-10   -5.306647403161001E-10   -4.047492071855376E-10   -8.771159220308884E-11   -1.0703624268701853E-11  9.65330622199689E-12     1.111998646817091E-9     -1.53800034591845E-11    -8.20873402007784E-12    -2.117603798532879E-12
2.8499999999999998E-5     -1.0162248375782158E-9   -7.369889820100526E-10   -5.973426965534368E-10   -4.843581849256026E-10   -1.2392370102371086E-10  -2.6136273760565322E-11  3.565536136495484E-12    1.1556137223000525E-9    -1.5115705305278877E-11  -9.943809064150382E-12   -3.3483291372627175E-12
2.9E-5                    -1.0709780587459762E-9   -7.746450493780345E-10   -6.493927124214468E-10   -5.656212138059202E-10   -1.5892614211078686E-10  -4.350629375883688E-11   -4.703282428063695E-12   1.1637179467250513E-9    -1.3585506621859609E-11  -1.1299915317796864E-11  -5.0734560764713215E-12
2.95E-5                   -1.072452266006985E-9    -7.925071166965602E-10   -6.836608538282999E-10   -6.365298960710984E-10   -1.9588202792040184E-10  -6.125423684500927E-11   -1.567457268818463E-11   1.1262103504060711E-9    -1.0476868346708069E-11  -1.2126197035650432E-11  -7.133606859577303E-12
2.9999999999999997E-5     -1.0080612245493077E-9   -7.795436825976528E-10   -6.976488517879292E-10   -6.888588752881558E-10   -2.4011295640624813E-10  -7.934654724906026E-11   -2.946057444552181E-11   1.0315772662012617E-9    -5.102463516888285E-12   -1.2277529484851496E-11  -9.113907715515542E-12
3.05E-5                   -8.786084642901895E-10   -7.221678853255054E-10   -6.859497631438633E-10   -7.206686991835135E-10   -2.9310393523175487E-10  -9.923092266875181E-11   -4.5595727233260866E-11  8.682259464107285E-10    3.282164205446772E-12    -1.1543326116677243E-11  -1.0530822818605077E-11
3.1E-5                    -6.918236320908611E-10   -6.116618470079288E-10   -6.413370978122327E-10   -7.316992591398777E-10   -3.505210352426265E-10   -1.2210533639027015E-10  -6.337908290368645E-11   6.23994455682675E-10     1.4987964300927853E-11   -9.560930037496922E-12   -1.1129947964317157E-11
3.15E-5                   -4.5005252727333923E-10  -4.4639611490597416E-10  -5.558463005371423E-10   -7.18691046782666E-10    -4.0574219873073464E-10  -1.475567284628449E-10   -8.221396800211724E-11   2.8664205963894174E-10   2.965165948653222E-11    -5.731805159271981E-12   -1.1027707943862691E-11
3.2E-5                    -1.4308561253657086E-10  -2.2641183969777653E-10  -4.202278363669657E-10   -6.745099757293771E-10   -4.5357349425107664E-10  -1.7414556383687147E-10  -1.0147832024027161E-10  -1.5255170920624836E-10  4.6411573632980235E-11   7.242243432701343E-13    -1.0522038113208013E-11
3.25E-5                   2.4777103512496737E-10   5.232378132258817E-11    -2.2647832678232998E-10  -5.894119032297819E-10   -4.905998029336141E-10   -2.0086216548356047E-10  -1.20190331928426E-10    -6.949482362366257E-10   6.431040168564869E-11    1.0419244323438088E-11   -9.68876549996832E-12
3.2999999999999996E-5     7.37811038692809E-10     3.9644385180729024E-10   2.682215261406921E-11    -4.5302687170279503E-10  -5.139816767339281E-10   -2.27423236023426E-10    -1.3713241187425678E-10  -1.3342615564785342E-9   8.260446449341408E-11    2.326910283965098E-11    -8.087211800779213E-12
3.35E-5                   1.3279088168025453E-9    8.082136700313208E-10    3.3427746571873215E-10   -2.574367795524079E-10   -5.207081008360552E-10   -2.5319073332563765E-10  -1.5154398107382992E-10  -2.0586875169960636E-9   1.0076436952925302E-10   3.8247448770458645E-11   -4.809663025448088E-12
3.4E-5                    2.001399919655222E-9     1.2813139165564832E-9    6.906075583603016E-10    1.0674872210210988E-13   -5.06862261227596E-10    -2.7611786069403184E-10  -1.6363730473560005E-10  -2.8517273393470883E-9   1.181908822783945E-10    5.380298117418807E-11    1.1687104336525019E-12
3.45E-5                   2.730559698718012E-9     1.8033673539969338E-9    1.0952325004395724E-9    3.177458559954852E-10    -4.670708571737194E-10   -2.927010158703491E-10   -1.7413358106808316E-10  -3.691578902844331E-9    1.3394261317183388E-10   6.874407596224164E-11    1.0558141946430908E-11
3.5E-5                    3.4878347912940186E-9    2.360321804695501E-9     1.5473643763250863E-9    6.924557426325802E-10    -3.953192829928252E-10   -2.987941164670244E-10   -1.8295517525507264E-10  -4.551777429073071E-9    1.4682845570578942E-10   8.288552580306709E-11    2.341818658746194E-11
3.5499999999999996E-5     4.251839348373191E-9     2.9362678639014245E-9    2.0378447240793636E-9    1.1220782564564584E-9    -2.8623361558331823E-10  -2.9060922276958984E-10  -1.8816954744420616E-10  -5.402828768561162E-9    1.5584844946483992E-10   9.687997777276148E-11    3.90125465448605E-11
3.6E-5                    5.001069291797088E-9     3.509839377985353E-9     2.547654635467627E-9     1.6032289108220769E-9    -1.349352146176638E-10   -2.651233083858474E-10   -1.8618233004309915E-10  -6.21162670574544E-9     1.6047961954790727E-10   1.1133049956202839E-10   5.5973607499127525E-11
3.65E-5                   5.701465687793899E-9     4.053747844447241E-9     3.0529894243451695E-9    2.1273282933550698E-9    6.334113849810238E-11    -2.1961132143462095E-10  -1.7306964538697872E-10  -6.938231878158861E-9    1.6033589944945076E-10   1.258689259264134E-10    7.286264500165548E-11
3.7E-5                    6.303709263949471E-9     4.538879587371189E-9     3.529631385194072E-9     2.6788527807398817E-9    3.111311615944772E-10    -1.5118784136074883E-10  -1.4600766917697432E-10  -7.533738814911303E-9    1.5438695281801082E-10   1.3888033447345886E-10   8.890515312563583E-11
3.75E-5                   6.756144819756142E-9     4.936416842382532E-9     3.953381523977702E-9     3.2368908465947905E-9    6.054251960208493E-10    -5.745864153362702E-11   -1.0392597359424551E-10  -7.94190063711607E-9     1.404948146099782E-10    1.4801394703067816E-10   1.0431233943550226E-10
3.7999999999999995E-5     7.018197383917073E-9     5.213679530766371E-9     4.298777226099129E-9     3.777410437149901E-9     9.37854659105846E-10     6.226934895268358E-11    -4.731763249094235E-11   -8.103160599229375E-9    1.1583919228865138E-10   1.510399679299624E-10    1.197215169672399E-10
3.85E-5                   7.056306093752255E-9     5.329762553559733E-9     4.5376995100624826E-9    4.2733573446947235E-9    1.299372460361603E-9     2.0697550520159327E-10   2.247812524637388E-11    -7.95898867737497E-9     7.802601318617661E-11    1.4644973074744323E-10   1.3504274760861894E-10
3.9E-5                    6.827755154438783E-9     5.2398554608829725E-9    4.637824708830939E-9     4.692685838608435E-9     1.6841963682639874E-9    3.7535698768283716E-10   1.0430520095937817E-10   -7.456334787863795E-9    2.610827388044659E-11    1.3348650600687328E-10   1.486964110690157E-10
3.95E-5                   6.276303871863955E-9     4.906500813954501E-9     4.562671873664893E-9     4.997242764010704E-9     2.0879829877937546E-9    5.66761160154946E-10     1.9813421476592575E-10   -6.551742385434776E-9    -3.910297942441226E-11   1.1169517503164956E-10   1.5801477729487685E-10
3.9999999999999996E-5     5.349379019866453E-9     4.306317769679949E-9     4.275811745318136E-9     5.145057596429218E-9     2.50170937128139E-9      7.802246486492108E-10    3.05126537905011E-10     -5.213277628780557E-9    -1.154834115521376E-10   8.030079706246078E-11    1.6052633156036267E-10
4.0499999999999995E-5     4.018257211034689E-9     3.426176987119509E-9     3.747914081838816E-9     5.0955256764066475E-9    2.907225269219431E-9     1.0126693924243576E-9    4.2640964272263524E-10   -3.42055416295079E-9     -2.0046441157087288E-10  3.779214143217318E-11    1.54998213500059E-10
4.1E-5                    2.279776882929185E-9     2.2561278054082E-9       2.961412877575202E-9     4.814395579373507E-9     3.2782401248047768E-9    1.2579604841999839E-9    5.613500695233353E-10    -1.166366027995949E-9    -2.919847090914089E-10   -1.7902677765799363E-11  1.4135397107228864E-10
4.15E-5                   1.433543535436947E-10    7.89191838962369E-10     1.9097535327108398E-9    4.275560364110976E-9     3.585378524449711E-9     1.5069252551296638E-9    7.066631433277357E-10    1.538604159044059E-9     -3.8917429611989927E-10  -8.843897825188283E-11   1.196128022064039E-10
4.2E-5                    -2.375975399223657E-9    -9.717826565653943E-10   5.944475303101642E-10    3.459153978941345E-9     3.801303809407065E-9     1.7476101385284045E-9    8.567901829357962E-10    4.661495943812985E-9     -4.92275100764871E-10    -1.7361075913799362E-10  8.87581914286026E-11
4.2499999999999996E-5     -5.249658429071243E-9    -3.007277940086744E-9    -9.744650918984208E-10   2.3489551149112274E-9    3.9027544327115E-9       1.966026651514296E-9     1.0047745186129659E-9    8.146507574817727E-9     -6.014770243863988E-10   -2.7041290901036653E-10  4.6357629541790276E-11
4.2999999999999995E-5     -8.423645443286715E-9    -5.2780154313360634E-9   -2.773831644956196E-9    9.339666714619155E-10    3.868872786571434E-9     2.1479205989855374E-9    1.1428208718485937E-9    1.1915723296231112E-8    -7.151151086694931E-10   -3.7360717636545655E-10  -1.0826581480296387E-11
4.35E-5                   -1.1814536394549892E-8   -7.7246558526399E-9      -4.763993184670328E-9    -7.840208985440346E-10   3.678037403717842E-9     2.280527955592896E-9     1.2625308439059191E-9    1.5868424572783405E-8    -8.283920987323095E-10   -4.777815484686968E-10   -8.549487192239813E-11
4.4E-5                    -1.5313721757644542E-8   -1.0270528011341142E-8   -6.891109943061621E-9    -2.781951164331683E-9    3.3067952673845538E-9    2.3523852821111784E-9    1.355189297595405E-9     1.987975530832815E-8     -9.335654234826109E-10   -5.794855660591116E-10   -1.7829373728194794E-10
4.45E-5                   -1.879288549469487E-8    -1.282817249777028E-8    -9.092928591685243E-9    -5.0141129993022466E-9   2.7324583888579576E-9    2.3510832811152734E-9    1.4121330884542001E-9    2.3801731231011743E-8    -1.021440602955273E-9    -6.775966120851367E-10   -2.868746319770207E-10
4.4999999999999996E-5     -2.2108026711570998E-8   -1.5305401264550825E-8   -1.1301487562342958E-8   -7.419406526933229E-9    1.9370633779379174E-9    2.261401435178278E-9     1.4249364911878398E-9    2.7467338606557017E-8    -1.083070464288501E-9    -7.713875828239348E-10   -4.0616762437163113E-10
4.5499999999999995E-5     -2.510373606291782E-8    -1.7604351188764504E-8   -1.3439838249226621E-8   -9.929459527185759E-9    9.096663529850676E-10    2.066240665755308E-9     1.3853426819712449E-9    3.069617327706398E-8     -1.110579329500501E-9    -8.578528422334973E-10   -5.298481289733766E-10
4.6E-5                    -2.761945190520945E-8    -1.9614834551666266E-8   -1.5416861434055963E-8   -1.246914937102748E-8    -3.525682478770325E-10   1.7500351572373655E-9    1.2852210064175227E-9    3.3300207069154434E-8    -1.0968816768375749E-9   -9.306438069576663E-10   -6.521136268939606E-10
4.65E-5                   -2.9496967592540875E-8   -2.1212045038984357E-8   -1.7126705711150245E-8   -1.4950255613207957E-8   -1.8419059240034594E-9   1.3019153600439572E-9    1.11694637597057E-9      3.5089518946823226E-8    -1.035010585387143E-9    -9.814703228027205E-10   -7.686444321625059E-10
4.7E-5                    -3.0586280997625555E-8   -2.226545379249232E-8    -1.8455092925483384E-8   -1.7266690274877887E-8   -3.5365117580763723E-9   7.164009832430375E-10    8.744006208670538E-10    3.58790817878809E-8      -9.180981159678375E-10   -1.0024524667582337E-9   -8.763146044443814E-10
4.7499999999999996E-5     -3.0747182039653976E-8   -2.265379006654257E-8    -1.9288946538275003E-8   -1.9297419503497356E-8   -5.399357217250844E-9    -7.826821500410366E-12   5.542949442408117E-10    3.5497876344002445E-8    -7.404692323788786E-10   -9.871483394867848E-10   -9.721620954930501E-10
4.8E-5                    -2.984829084506205E-8    -2.2275249026164457E-8   -1.9524416020656265E-8   -2.0915044625661416E-8   -7.381056045306967E-9    -8.686572014123872E-10   1.569675601531431E-10    3.3799540734982404E-8    -4.992320512630743E-10   -9.296324392228295E-10   -1.0524079567791916E-9
4.85E-5                   -2.7769912417481845E-8   -2.1048548871323553E-8   -1.9071495006288136E-8   -2.1993975873620147E-8   -9.423603055096581E-9    -1.8594300553520239E-9   -3.1406016039409727E-10  3.0671732872812976E-8    -1.9514808238090694E-10  -8.232138213106565E-10   -1.1118642086582546E-9