% Model:              Untitled.mph
% Version:            COMSOL 6.0.0.405
% Date:               Jul 17 2025, 00:11
% Dimension:          1
% Nodes:              401
% Expressions:        11
% Description:        Point graph
% Time (s)                Displacement field, Y component Displacement field, Y component Displacement field, Y component Displacement field, Y component Displacement field, Y component Displacement field, Y component Displacement field, Y component Displacement field, Y component Displacement field, Y component Displacement field, Y component Displacement field, Y component
0                         -7.689274901702767E-32   -3.381126900005974E-33   -2.960753308204469E-32   1.9589911934596475E-34   -9.427355341648512E-35   2.1820934169075714E-30   3.6334155785091256E-30   2.2508100287649626E-30   2.0888311171459036E-30   7.95469215112412E-31     3.7860212617269828E-34
5.0E-7                    -8.98210751573356E-25    2.66519939495836E-24     -6.87959140140113E-24    -1.0631112064804361E-25  1.1837125651474779E-26   1.4231592097769113E-22   -3.861308094371016E-22   -5.366124879438327E-22   -3.2753410750893616E-22  -1.074256197925159E-22   -3.755918277168496E-26
1.0E-6                    9.767802884604991E-23    2.671608300535297E-23    9.064427678060379E-23    -2.341644345428088E-25   6.527968318992625E-27    -5.8218358202272204E-21  -1.6386487912880988E-21  1.0175475328680132E-21   3.1920565987835314E-22   2.093656312138585E-23    -7.074867476670495E-26
1.5E-6                    -5.462093210686462E-22   -1.2122776608477215E-22  -3.345812213824264E-22   3.516350165860503E-24    -1.4980338101342667E-25  3.3322884249030367E-20   1.0144904468020818E-20   1.0424051237202413E-20   2.103532170929232E-21    1.2611018959963888E-21   6.789897272800517E-25
2.0E-6                    1.2122213887886267E-21   -9.785347268741176E-23   4.338273348469165E-22    -1.0011505548009614E-23  6.197253340451923E-25    -7.533896505730964E-20   -8.874760786614132E-21   -7.573586683257856E-20   -1.4935055260888527E-20  -5.481508147317021E-21   -2.646349996377589E-24
2.4999999999999998E-6     1.0529116452630073E-21   1.1394411779831966E-21   2.0862699973794447E-22   -8.671716773147029E-25   -1.1358956971501205E-24  -8.407295919196488E-21   -4.132690717722152E-20   1.6157629957350007E-19   5.985445276246363E-20    2.0427355033966916E-20   7.679737184695005E-24
3.0E-6                    -7.49864242295014E-21    3.0929985160236413E-22   -1.4949004276593864E-21  7.004936399940697E-23    5.054726530123263E-25    2.727492989858347E-19    2.0841856661740348E-20   1.2778875376197978E-19   -1.3319210714073752E-19  -3.3595141113588605E-20  -1.401080188352414E-23
3.5E-6                    -5.403462304391579E-21   -5.5998187843063036E-21  2.3405068866125958E-21   -8.1851854870036E-23     -6.960057192915342E-26   -9.117644694201823E-20   3.002046920514351E-19    -9.314611208272295E-19   2.4287939361208328E-20   -2.9310694696670046E-20  -1.0128455883701656E-24
4.0E-6                    2.4808416002169296E-20   -9.35012957200381E-21    4.437644985516779E-21    -1.856517770979656E-22   -8.825457473440408E-25   -1.6113556877895361E-19  -6.501113891257514E-20   2.1437988481188034E-19   6.408360879548495E-19    1.432134912339546E-19    5.1021071140984476E-23
4.5E-6                    1.0172359984518152E-19   2.3816955323661246E-20   -1.9923781423072865E-20  3.755170919579702E-22    1.0757219336903298E-23   -1.2920072726111443E-18  -9.926725007636623E-19   2.84368561878395E-18     -1.1013628309685272E-18  -1.406825932693769E-19   -9.13894941474382E-23
4.9999999999999996E-6     -5.2057546377317795E-20  1.0933645907017003E-19   -1.6025575531880247E-20  -8.610405668508707E-22   9.597584227021391E-24    -1.8936083846593075E-18  -1.1347824260352664E-18  3.612783771895306E-19    -4.925675855100081E-19   -2.516269041586566E-20   1.362410875438228E-22
5.5E-6                    -6.9499773945245E-19     -6.831826483561867E-20   1.774773983310209E-19    -1.979287306006939E-22   -2.1183417786993475E-23  1.0927365492826316E-17   2.7631850499817213E-18   -5.709729970771438E-18   4.077616734196506E-18    5.79406548841615E-19     3.955464517572752E-22
6.0E-6                    -1.5489365068290026E-19  -6.920387598528538E-19   4.164706899708951E-20    1.3501379366600217E-20   -2.475486565985464E-22   1.5323524420897855E-17   1.2056880968208336E-17   -8.593322858595823E-18   -3.044396039946648E-18   -1.0323048176963192E-18  -1.1272705391271083E-21
6.5E-6                    2.4526310856440957E-18   -2.190630281603603E-20   -1.2723548637685943E-18  -3.897282420192895E-21   -1.3226122438438197E-22  -3.9615399586610156E-17  -3.8841574645431425E-18  7.268205410282539E-18    -6.9138373891993925E-18  -1.1413714477491851E-18  -2.499186895334375E-21
7.0E-6                    1.404633914379983E-18    3.0471208460091843E-18   -6.142194329729485E-19   -9.704652811404779E-20   1.823839675746072E-21    -6.971341719616553E-17   -4.215267670556765E-17   4.988805791989233E-17    1.6821976294032148E-17   3.530695133884932E-18    -5.30665099022715E-23
7.499999999999999E-6      -6.823074716803703E-18   1.34337262438828E-18     6.496763153890063E-18    -1.0959465129980615E-20  2.0126377418670686E-21   8.978720625676231E-17    2.0571550773158465E-17   2.672179338485856E-17    1.1307856890949324E-17   2.345733781460618E-18    1.3156188205218041E-20
8.0E-6                    -9.345912896617634E-18   -1.1764435263900005E-17  7.265322875243776E-18    4.786123872282084E-19    -8.598724111743636E-21   2.5386009798005123E-16   1.3607723386033222E-16   -1.2785903739529446E-16  -3.04048000807832E-17    5.593033316254201E-19    4.361890209972671E-20
8.5E-6                    7.68306157910025E-18     -1.4117329262519694E-17  -2.1981878659757276E-17  3.1624019050967083E-19   -1.616186401373553E-20   -7.224704490575633E-18   -8.84716427218328E-18    -9.044443856716465E-17   9.53707130703179E-18     1.2334747066605772E-17   3.637594017542891E-21
9.0E-6                    1.3205769116432572E-17   2.5663172883721844E-17   -4.857367247030289E-17   -1.770965014227547E-18   2.8249796049518177E-20   -4.852101643223959E-16   -1.9124731094372433E-16  4.0523727839142027E-16   9.291526590825672E-17    -2.1904598680610182E-18  -2.7100276667958297E-19
9.499999999999999E-6      -6.420693213254806E-17   5.581332582391828E-17    3.1105912981424355E-17   -2.5788780160093313E-18  9.489048040820629E-20    -3.542676239049308E-16   2.378639124299557E-16    5.618058579675299E-16    1.5627840760603995E-16   -3.557470147583767E-18   -4.1940576034109026E-19
9.999999999999999E-6      -1.549581953693828E-16   -4.849163542566081E-17   1.9607559341479119E-16   4.104040154244809E-18    -4.9959520937655084E-20  5.874660988643699E-16    7.540171450746593E-16    -2.4748658955640263E-16  3.392968994461788E-16    2.30629770707766E-16     7.382401834705537E-19
1.05E-5                   2.8397158153113625E-17   -2.3694519044941225E-16  1.103212034603018E-16    1.2188858094874186E-17   -4.737202748811105E-19   1.7558320139752774E-15   5.061543287003152E-16    5.0286330339134453E-17   3.004759894073915E-16    5.568454245733725E-16    2.8202758750857196E-18
1.1E-5                    2.765337458397352E-16    -1.5064113833836253E-16  -4.801394628009524E-16   -1.8589413825562404E-18  -2.7275298188031354E-19  2.3047958928851888E-15   8.030475671321188E-16    3.2945968775627394E-15   2.2021532606542865E-16   4.0303740926270803E-16   7.635155328773214E-19
1.15E-5                   -6.460998137302656E-16   3.8290183114659797E-16   -8.693616220439427E-16   -3.870599586645987E-17   1.686510471132271E-18    2.4282582240928076E-16   2.4509276841779385E-15   4.894672751902599E-15    2.908136808058425E-15    4.811939502873313E-16    -9.51729659373607E-18
1.2E-5                    -2.7201621695290276E-15  6.1690343179391E-16      3.320729113058169E-16    -3.21902230945817E-17    2.9914024261977552E-18   -4.6568109727146485E-15  3.530488908598481E-15    2.129167274732644E-16    7.947128817805168E-15    2.5186699897014477E-15   -1.4781286115365244E-17
1.2499999999999999E-5     -2.276415703202311E-15   -7.080335623977299E-16   2.6428658203461343E-15   7.466628554319056E-17    -3.1413933809322233E-18  -1.7060092144909244E-15  7.990122341180908E-15    1.3533865044720534E-15   5.784564786864605E-15    4.9925649153663264E-15   1.4242065376589854E-17
1.3E-5                    1.994028840376527E-15    -3.2742633323248187E-15  2.0693180060673424E-15   1.5125886507676866E-16   -1.5136218772953376E-17  2.4577791310654142E-14   2.6017966909394023E-14   2.902163628421652E-14    -1.4072388765877133E-15  5.549216218627503E-15    6.847939098259604E-17
1.35E-5                   -3.577597614340003E-16   -3.763105034660654E-15   -4.212669542626345E-15   -7.644955509338599E-17   -8.153221295224656E-18   5.92035224036672E-14     4.866279189135762E-14    7.242997425254674E-14    2.185951889885619E-14    1.2841804413729396E-14   4.8030909604550996E-17
1.4E-5                    -2.0981103832428355E-14  7.556478261089413E-16    -9.816314580240455E-15   -5.434061305027086E-16   3.8714938894140914E-17   4.9155930854385866E-14   5.0564689990580195E-14   8.932848600485955E-14    9.562176810305595E-14    4.103486205993507E-14    -1.2064358928730203E-16
1.45E-5                   -4.615307397380744E-14   5.210348595703501E-15    -2.175990924118834E-15   -4.881368453363756E-16   6.936729139542481E-17    -7.752879460223821E-15   6.903931590861244E-14    9.713940375524661E-14    1.6390924430874758E-13   8.291141306032759E-14    -2.2435504829957686E-16
1.4999999999999999E-5     -4.84560324730755E-14    -4.422173690642225E-15   1.7738398581592518E-14   7.91653755910963E-16     -4.4437547382345795E-17  2.969569523450689E-14    2.3861273283893534E-13   2.387233780896995E-13    1.9568731014491381E-13   1.2399310876168944E-13   1.1765944019721848E-16
1.55E-5                   -5.163556555875239E-14   -3.5564647391338583E-14  2.32490191425988E-14     2.2356505692521617E-15   -2.924402085106327E-16   3.2997543950959114E-13   6.219615889711018E-13    6.500363143534604E-13    3.554410773593811E-13    2.1342303773966013E-13   6.827356359720879E-16
1.6E-5                    -1.4829600670431214E-13  -7.283542958099982E-14   -1.1688167068093944E-14  6.004235993157314E-16    -3.0291066981476284E-16  8.082184026309305E-13    1.0262160232147885E-12   1.2435007714614017E-12   8.672602524346761E-13    4.643216361860977E-13    4.680649547061648E-16
1.6499999999999998E-5     -3.9584020066547975E-13  -9.59131477084367E-14    -6.513274667384278E-14   -6.0924423886530575E-15  3.5119361706189696E-16   1.1243982354567455E-12   1.2534457769325664E-12   1.8264694253018107E-12   1.6623338123347222E-12   9.275568924322E-13       -5.153744800518548E-16
1.7E-5                    -7.333671147361345E-13   -1.2714144205438393E-13  -6.798505487620634E-14   -1.2715048909183379E-14  1.1686869486135476E-15   1.2133312647735788E-12   1.7277959019900623E-12   2.6697513448024562E-12   2.5758499306931357E-12   1.5823118813350518E-12   1.9477063066182015E-16
1.75E-5                   -1.128337413372878E-12   -2.432436114020779E-13   1.3709274619500786E-14   -7.514754485755182E-15   2.7691473131851803E-16   1.7946741577858963E-12   3.648752435561086E-12    4.856512652633179E-12    4.206596614392024E-12    2.6480865943871493E-12   4.223982981523539E-15
1.8E-5                    -1.854481710659381E-12   -5.208030982892757E-13   9.526735790000962E-14    1.2619141129159127E-14   -3.5556551449000095E-15  4.039185727268483E-12    8.096233315233352E-12    9.628138304695198E-12    8.059948708706632E-12    4.845633053570592E-12    7.410698305929256E-15
1.85E-5                   -3.5149205781311808E-12  -1.0097440684821922E-12  1.7489207156261027E-14   2.3146711065558295E-14   -7.313815559748368E-15   8.55226780737909E-12     1.4891914181054468E-11   1.710259693158993E-11    1.5007667278552427E-11   8.991252657676629E-12    4.339489543628985E-15
1.8999999999999998E-5     -6.645513698187625E-12   -1.8315705720054208E-12  -2.780215274790205E-13   -1.7921802036616397E-14  -4.547376086833656E-15   1.4890751809375835E-11   2.2610310198836804E-11   2.5820958950366435E-11   2.3708778009714115E-11   1.5110893935681178E-11   2.282015747668714E-15
1.95E-5                   -1.1244917443852116E-11  -3.2958851413454334E-12  -6.334219521634902E-13   -1.1953608534730742E-13  4.763226893070423E-15    2.2277000139582696E-11   2.981032127266295E-11    3.379658420772461E-11    3.1448227655526E-11      2.2143614447696617E-11   2.251499419824123E-14
1.9999999999999998E-5     -1.6712714847619544E-11  -5.815333122511429E-12   -8.202930408551452E-13   -2.2260175935943835E-13  4.6131736428777655E-15   3.051636538802309E-11    3.599324480328774E-11    3.981220502203254E-11    3.669536967085598E-11    2.8738866198579722E-11   7.561289093974983E-14
2.05E-5                   -2.223863348939019E-11   -9.629673969830622E-12   -8.723191337520892E-13   -2.5460197692250873E-13  -2.649867822122505E-14   3.968433536784586E-11    4.1181989364897064E-11   4.338318767148989E-11    3.992315608943441E-11    3.413054324395506E-11    1.41429892287346E-13
2.1E-5                    -2.7180662197054647E-11  -1.4621171658121618E-11  -1.2407783722088722E-12  -2.478623252332944E-13   -8.561494306088153E-14   4.8756237515337917E-11   4.480582429706362E-11    4.377615514178785E-11    4.1551932210640624E-11   3.7877088886931625E-11   1.9732246879632032E-13
2.1499999999999997E-5     -3.100315446923672E-11   -2.036488265989732E-11   -2.516384171199201E-12   -3.8634108692462305E-13  -1.3678910420408061E-13  5.4950916405052833E-11   4.534604458569188E-11    3.988347416160389E-11    4.0173626038040965E-11   3.898725348450981E-11    2.7719611692630444E-13
2.2E-5                    -3.29442899549442E-11    -2.621348280366687E-11   -4.95556482373864E-12    -9.038744875988101E-13   -1.6026487567533037E-13  5.49774040231199E-11     4.116765765061592E-11    3.137912231657255E-11    3.380652316849512E-11    3.6075325103231374E-11   4.857116133986639E-13
2.2499999999999998E-5     -3.203375888963974E-11   -3.124997963487181E-11   -8.332816655727078E-12   -1.933437947734652E-12   -2.1843641906461886E-13  4.725028779016051E-11    3.167371597444775E-11    1.9449915932024063E-11   2.234798347305447E-11    2.8706841639263597E-11   9.363986432346303E-13
2.3E-5                    -2.767925974682321E-11   -3.4284457270923084E-11  -1.2251212515962544E-11  -3.4545370165145977E-12  -4.4123620971410233E-13  3.2984086711502136E-11   1.772492147221534E-11    5.777032473350554E-12    7.690493468476347E-12    1.8042364124899524E-11   1.6825436863656203E-12
2.35E-5                   -2.0179192762562424E-11  -3.40907517834502E-11    -1.643131021596112E-11   -5.343512637780445E-12   -9.1416448443668E-13     1.5104226385823858E-11   9.25023549759522E-13     -9.228009177856985E-12   -8.525333891657857E-12   5.567338520863211E-12    2.7184547150636652E-12
2.4E-5                    -1.0426069250391651E-11  -2.9743533588218095E-11  -2.054751619536752E-11   -7.429399779042153E-12   -1.6039436518264691E-12  -4.096356702467682E-12   -1.7845577628173195E-11  -2.7044652225115402E-11  -2.6499341284439056E-11  -8.647169245142876E-12   4.024873748225129E-12
2.45E-5                   9.84050132610072E-13     -2.086164055510454E-11   -2.388291694210576E-11   -9.516747003304356E-12   -2.4524264397055392E-12  -2.4621347956490475E-11  -3.964912535284222E-11   -5.016292824346676E-11   -4.777331429053717E-11   -2.6037283391748218E-11  5.566864290153436E-12
2.4999999999999998E-5     1.4315456203806525E-11   -7.824397064350398E-12   -2.5399693280491496E-11  -1.1381504059828674E-11  -3.54203160537828E-12    -4.855342302002935E-11   -6.734887372414014E-11   -8.081662816795843E-11   -7.414940357722236E-11   -4.8174704592045284E-11  7.224639937601029E-12
2.55E-5                   3.0526513609943106E-11   8.103008519412492E-12    -2.4247232192451775E-11  -1.270090183183981E-11   -5.065600049876817E-12   -7.842689200113074E-11   -1.038598901064218E-10   -1.2014955991665455E-10  -1.0735853238346197E-10  -7.583948770327947E-11   8.746431251383555E-12
2.6E-5                    5.0855798345708825E-11   2.5258100520575075E-11   -2.0106630412869815E-11  -1.2951683086166288E-11  -7.024664357281177E-12   -1.1578501020450696E-10  -1.5000093144720576E-10  -1.677591792452218E-10   -1.4877161050168014E-10  -1.09226110567145E-10    9.804391493273352E-12
2.65E-5                   7.656765355644598E-11    4.28897991777734E-11     -1.3030277597336292E-11  -1.1502903704435795E-11  -8.982412781981482E-12   -1.6104651679949507E-10  -2.0371819094918474E-10  -2.21555372692863E-10    -1.9828564709104035E-10  -1.4814650675475752E-10  1.0114980146129178E-11
2.7E-5                    1.0852374133212763E-10   6.225541699454256E-11    -3.1284909115904505E-12  -8.025751242319016E-12   -1.0278929516832014E-11  -2.1416496536685952E-10  -2.612422009861109E-10   -2.7821514822168674E-10  -2.5327486851774515E-10  -1.9156535107564696E-10  9.501527205216869E-12
2.7499999999999998E-5     1.4628783454854813E-10   8.601175570058346E-11    9.487144275825917E-12    -2.8547020010277116E-12  -1.0630566650293803E-11  -2.745722115095725E-10   -3.189368953708657E-10   -3.3420456692602343E-10  -3.0913998771133454E-10  -2.37409882086704E-10    7.831744336295266E-12
2.8E-5                    1.8751872977243193E-10   1.1591641241827085E-10   2.464673726806032E-11    3.250328035721532E-12    -1.0463535438974992E-11  -3.399430325920866E-10   -3.742125792712842E-10   -3.8672315881112805E-10  -3.6137007226745314E-10  -2.834324224625297E-10   4.902553442175838E-12
2.8499999999999998E-5     2.2881296914875304E-10   1.5086278935668564E-10   4.2283382615003204E-11   9.86820328180581E-12     -1.042843199304251E-11   -4.0533379826206774E-10  -4.251620976879355E-10   -4.338826078004846E-10   -4.072662862203452E-10   -3.2818639516303823E-10  4.213716889907529E-13
2.9E-5                    2.67738530059421E-10     1.8726473017403385E-10   6.267762611637122E-11    1.7399398940284508E-11   -1.0399655192593454E-11  -4.6448913349008027E-10  -4.69801505698035E-10    -4.73973674675967E-10    -4.457846393521439E-10   -3.706999413734251E-10   -5.842131307890215E-12
2.95E-5                   3.040227606912444E-10    2.2154387808835178E-10   8.630295487703558E-11    2.6689975602964695E-11   -9.010029122045403E-12   -5.127044825230402E-10   -5.056870165797211E-10   -5.042978388078571E-10   -4.758823248253317E-10   -4.090310628887773E-10   -1.3829699232712586E-11
2.9999999999999997E-5     3.38322330061462E-10     2.5235781513809267E-10   1.1312688498444312E-10   3.8216372911870664E-11   -4.4374912252025775E-12  -5.483596567645177E-10   -5.299035016563849E-10   -5.20487277115416E-10    -4.949925965022428E-10   -4.39317585010523E-10    -2.3101039695224356E-11
3.05E-5                   3.6966421009025955E-10   2.804504628851088E-10    1.4185002412713559E-10   5.1684143909113243E-11   4.1110250883017675E-12   -5.712912414622468E-10   -5.39089725839463E-10    -5.171629059552572E-10   -4.986416112511273E-10   -4.5637430466313255E-10  -3.301489347666533E-11
3.1E-5                    3.9428582401768017E-10   3.0631306599922524E-10   1.698156431207062E-10    6.622419680675256E-11    1.5650792574559376E-11   -5.796531635050133E-10   -5.292927720743617E-10   -4.896943406653902E-10   -4.810053753421216E-10   -4.5529321017904E-10     -4.3100907255600294E-11
3.15E-5                   4.07016332288452E-10     3.2793377539762933E-10   1.9394935906178355E-10   8.064731955674654E-11    2.8223610864609127E-11   -5.685720373927283E-10   -4.956552005659572E-10   -4.353594490451574E-10   -4.3593907863619644E-10  -4.3274441519437226E-10  -5.3324058687896096E-11
3.2E-5                    4.0348547632396236E-10   3.4079623440678684E-10   2.122497550928628E-10    9.348581946466783E-11    4.0510052823973254E-11   -5.316837381578399E-10   -4.3233893862700417E-10  -3.523371815659785E-10   -3.5831177728852335E-10  -3.8707815138246184E-10  -6.395837829866208E-11
3.25E-5                   3.8083581540036676E-10   3.4007652961581067E-10   2.2460014683969E-10      1.0326865089840592E-10   5.270460023598167E-11    -4.634508536854604E-10   -3.3339989183761185E-10  -2.3740599538882065E-10  -2.451875266731494E-10   -3.1711154627150653E-10  -7.509163702277168E-11
3.2999999999999996E-5     3.367048424618634E-10    3.2282976758732697E-10   2.319052725554999E-10    1.0934625814790819E-10   6.594615668524956E-11    -3.59894438584072E-10    -1.9463064783075134E-10  -8.530338981808893E-11   -9.595573312089256E-11   -2.203533295642014E-10   -8.614589616043283E-11
3.35E-5                   2.6821507985005395E-10   2.8804649076051986E-10   2.340404545893253E-10    1.1256404323852174E-10   8.104403153437223E-11    -2.1781512712286738E-10  -1.4990115994158667E-11  1.0873117905724917E-10   8.877859659968757E-11    -9.223341909463995E-11   -9.58553123291767E-11
3.4E-5                    1.7233672254829884E-10   2.347773486303164E-10    2.285036865564619E-10    1.1463217698920185E-10   9.768645126721984E-11    -3.424109269289031E-11   2.0383952309078752E-10   3.454512311438648E-10    3.083473973368931E-10    7.234954146859813E-11    -1.0276879423502177E-10
3.45E-5                   4.7096232867010755E-11   1.6063817249080173E-10   2.1118523636697068E-10   1.1614711570968094E-10   1.1453633760346513E-10   1.930445026331066E-10    4.5924534722437597E-10   6.206205928131069E-10    5.618528541449593E-10    2.7581436354606154E-10   -1.0585238854075698E-10
3.5E-5                    -1.0789575760027617E-10  6.253206039491503E-11    1.7852797144359559E-10   1.1489554618607928E-10   1.297786957875467E-10    4.6462304481269427E-10   7.486721414996633E-10    9.270129171675955E-10    8.467663324152529E-10    5.156272495282966E-10    -1.0464389944056744E-10
3.5499999999999996E-5     -2.9213156337683103E-10  -6.1197525713101E-11     1.2897309768478325E-10   1.0630814695507756E-10   1.4162754519955205E-10   7.789502451616244E-10    1.068711761807057E-9     1.2565614439202342E-9    1.1576264662092007E-9    7.849171250788794E-10    -9.883238315151807E-11
3.6E-5                    -5.049356224020455E-10   -2.0967472000889314E-10  6.259719753492536E-11    8.609277922584831E-11    1.4863922740679488E-10   1.1319084311179382E-9    1.4135076009118478E-9    1.6004524391584E-9       1.4858125381322442E-9    1.074978793061869E-9     -8.772135167070231E-11
3.65E-5                   -7.447644051694279E-10   -3.805890031009911E-10   -2.0127209659630314E-11  5.2884439876920843E-11   1.497740482699223E-10    1.5158598889648866E-9    1.7740848836680548E-9    1.948010611843748E-9     1.820155592034902E-9     1.3769794879507617E-9    -7.018171954675627E-11
3.7E-5                    -1.0072341635615065E-9   -5.718108903436619E-10   -1.1895112186357597E-10  8.571420572276887E-12    1.4413286317756784E-10   1.9187614597539042E-9    2.13855268310268E-9      2.2862734392835373E-9    2.14760498134912E-9      1.6817263680246384E-9    -4.51995062442414E-11
3.75E-5                   -1.2837716456509506E-9   -7.812107547485489E-10   -2.3352845884371243E-10  -4.3850425699289645E-11  1.3055551310586056E-10   2.3245379658535646E-9    2.4921602205485998E-9    2.600413167001519E-9     2.4535791875280365E-9    1.978771298233217E-9     -1.2457990394248639E-11
3.7999999999999995E-5     -1.5624971728195576E-9   -1.0047322559765991E-9   -3.6285681174940757E-10  -1.0272876682489646E-10  1.0752913713247069E-10   2.7148112601691885E-9    2.817145418211E-9        2.873872642366324E-9     2.7221238584603017E-9    2.2562471672613625E-9    2.7702350356482585E-11
3.85E-5                   -1.8307745957056723E-9   -1.235007823612598E-9    -5.049270862306967E-10   -1.6834249427713434E-10  7.359250851763904E-11    3.070515614382786E-9     3.0933019240173742E-9    3.088034862280862E-9     2.936007489183618E-9     2.5010844399326486E-9    7.496196577782938E-11
3.9E-5                    -2.0771724531335282E-9   -1.462045172743472E-9    -6.564323765013371E-10   -2.415865825572674E-10   2.787304061057383E-11    3.3721345431330388E-9    3.2995217323039853E-9    3.2225092634313E-9       3.0767353571425785E-9    2.698545441633963E-9     1.2963312884285477E-10
3.95E-5                   -2.291213966413028E-9    -1.67501455574366E-9     -8.125120061176995E-10   -3.224310983323512E-10   -2.970562730716868E-11   3.5991622839608212E-9    3.415277782283495E-9     3.2565830979840046E-9    3.124604369732436E-9     2.8312804208517416E-9    1.9247975224671228E-10
3.9999999999999996E-5     -2.4614355297903973E-9   -1.8632395068069116E-9   -9.66886592300271E-10    -4.093757101463871E-10   -9.857826183391514E-11   3.730310457395346E-9     3.421044083408951E-9     3.1709220204634316E-9    3.059201397715702E-9     2.8793576338400634E-9    2.6373162085282415E-10
4.0499999999999995E-5     -2.5736363413653055E-9   -2.0158690752805347E-9   -1.112450764153705E-9    -4.995621803763883E-10   -1.7778623483372097E-10  3.744610903449701E-9     3.298001082774419E-9     2.9483981271696283E-9    2.8607314516272545E-9    2.822156992826951E-9     3.419901652987836E-10
4.1E-5                    -2.610775215247238E-9    -2.1211522858112268E-9   -1.2417469576814856E-9   -5.887237144053841E-10   -2.6615944020231667E-10  3.622088626942139E-9     3.028256503409303E-9     2.574237046010099E-9     2.5121611545814652E-9    2.6413216794650133E-9    4.2380452493879915E-10
4.15E-5                   -2.5546725102542766E-9   -2.166218108394299E-9    -1.3468022956199538E-9   -6.710480065296213E-10   -3.623822218750837E-10   3.3435495674622736E-9    2.5961833493194883E-9    2.036660680389127E-9     2.0016256429337332E-9    2.323064274946383E-9     5.041980054757737E-10
4.2E-5                    -2.3886397301283577E-9   -2.1375976149866795E-9   -1.4186418329834894E-9   -7.396627291689298E-10   -4.648154518868281E-10   2.8909492771395622E-9    1.990293829907454E-9     1.3285335486850052E-9    1.3241887736693267E-9    1.8588506749468971E-9    5.778176069719471E-10
4.2499999999999996E-5     -2.0997167002670867E-9   -2.022398026658088E-9    -1.447301359120051E-9    -7.878255032526285E-10   -5.710398779089336E-10   2.2495819394066447E-9    1.2048219456990994E-9    4.4912513127461677E-10   4.822293006358896E-10    1.2449365013610587E-9    6.400270093287297E-10
4.2999999999999995E-5     -1.6795217291840273E-9   -1.8097564283065549E-9   -1.4226508424517692E-9   -8.099690076284577E-10   -6.774192029599206E-10   1.4110263284488457E-9    2.4088417761570214E-10   -5.951169552167674E-10   -5.15406587307942E-10    4.819897652413005E-10    6.872975278907333E-10
4.35E-5                   -1.1239045237865569E-9   -1.491813266700591E-9    -1.3354672525109259E-9   -8.017946276797587E-10   -7.790442847263996E-10   3.748460767504727E-10    -8.925336533871955E-10   -1.790585651394413E-9    -1.654391083365958E-9    -4.2442294783749286E-10  7.166792493299455E-10
4.4E-5                    -4.3269941607940085E-10  -1.063786976741133E-9    -1.1780840951929896E-9   -7.595000377613071E-10   -8.70034384453956E-10    -8.511304217074058E-10   -2.1779366873510715E-9   -3.116051849971476E-9    -2.914874861355581E-9    -1.4627010753478272E-9   7.247665187894053E-10
4.45E-5                   3.8946856055617784E-10   -5.23877996494502E-10    -9.446965990616017E-10   -6.789505691275148E-10   -9.43878468563911E-10    -2.250392062927917E-9    -3.58944005699549E-9     -4.5411833430872786E-9   -4.270200157184248E-9    -2.614153126994487E-9    7.069615046176193E-10
4.4999999999999996E-5     1.3318692264490707E-9    1.2587913012783178E-10   -6.319650903490634E-10   -5.556277430795994E-10   -9.936453397122585E-10   -3.796563233098707E-9    -5.0934469863764345E-9   -6.02530633255526E-9     -5.685155490166953E-9    -3.85248858035869E-9     6.576215718321991E-10
4.5499999999999995E-5     2.3770680225876205E-9    8.779572492779344E-10    -2.401049775301119E-10   -3.8565310566703833E-10  -1.012118612788425E-9    -5.452754570265953E-9    -6.649131101081156E-9    -7.518240237142698E-9    -7.114870126386386E-9    -5.143853991750017E-9    5.710191513759186E-10
4.6E-5                    3.5013010980291978E-9    1.7183383742699874E-9    2.2628213243623694E-10   -1.6739386525496762E-10  -9.919375312606062E-10   -7.1725784499282954E-9   -8.208448878795715E-9    -8.963413442367332E-9    -8.505194802964078E-9    -6.4472800076354764E-9   4.4253709337269444E-10
4.65E-5                   4.675020742353497E-9     2.6271182810088635E-9    7.585098666553546E-10    9.743271285600625E-11    -9.258808821900502E-10   -8.902039079008224E-9    -9.71627420958921E-9     -1.0301346040060354E-8   -9.794935955311834E-9    -7.715540183390652E-9    2.695394841626522E-10
4.7E-5                    5.863100313820662E-9     3.579968707607773E-9     1.3450853909884925E-9    4.039966487266833E-10    -8.075352800304108E-10   -1.0580775157118266E-8   -1.1111296609696466E-8   -1.1471394622489136E-8   -1.0919577432389642E-8   -8.89643738086498E-9     5.171480395191819E-11
4.7499999999999996E-5     7.025088936419357E-9     4.5491100456964475E-9    1.9727353309983404E-9    7.456362498622137E-10    -6.322958149995769E-10   -1.214252874523104E-8    -1.232773801146238E-8    -1.2411693147376955E-8   -1.1815292564915767E-8   -9.934431690533876E-9    -2.089867121615362E-10
4.8E-5                    8.11598811598089E-9      5.503451562730466E-9     2.626065566865966E-9     1.1148677067408017E-9    -3.980652627043701E-10   -1.3516075141204607E-8   -1.329770745789073E-8    -1.3059300317213107E-8   -1.2421818097189618E-8   -1.0772568584863308E-8   -5.085459880445543E-10
4.85E-5                   9.087449975489196E-9     6.408565391659087E-9     3.2859755700312196E-9    1.5030791204960546E-9    -1.0507724989569286E-10  -1.462745288417638E-8    -1.3954140425285297E-8   -1.3352502404381322E-8   -1.268365541023868E-8    -1.1354762018183754E-8   -8.409369048938708E-10