% Model:              Untitled.mph
% Version:            COMSOL 6.0.0.405
% Date:               Jul 17 2025, 03:33
% Dimension:          1
% Nodes:              401
% Expressions:        11
% Description:        Point graph
% Time (s)                Displacement field, Y component Displacement field, Y component Displacement field, Y component Displacement field, Y component Displacement field, Y component Displacement field, Y component Displacement field, Y component Displacement field, Y component Displacement field, Y component Displacement field, Y component Displacement field, Y component
0                         2.8099056737616114E-33   1.2400270878218607E-32   2.7289021827835544E-31   1.7929937940774328E-31   1.4097104636755506E-31   3.960396320599428E-32    1.6738629627396997E-32   -7.374176510060995E-31   -5.065661965093487E-31   -1.3864522590589696E-32  -1.6708436324813846E-31
5.0E-7                    3.434123232043925E-25    2.4684097183347555E-24   1.1207356963071586E-23   -1.175639864859018E-23   -1.2547230153213632E-23  2.6026992845035606E-24   -2.471168505188314E-24   1.13044055245716E-22     1.1063109624011022E-22   2.1125476531098374E-24   -4.333305101994801E-23
1.0E-6                    -3.960633525853737E-24   -1.7240806937870565E-23  -3.2780667900716364E-22  -7.552608556496124E-23   -3.766848840533945E-23   -3.1368586177524175E-23  -8.415952881506667E-24   2.8070556507112494E-22   -2.6658547516819233E-22  -3.742730487822684E-24   3.041214619141667E-22
1.5E-6                    1.2180883472815563E-23   4.4572256841113296E-23   1.3453287954434778E-21   1.4197580704363358E-22   5.195659173090136E-22    1.0863786760132717E-22   4.88598464437855E-23     -3.074784362042163E-21   -1.1394581724188603E-21  1.0461567737784998E-24   -9.77823067612288E-22
2.0E-6                    -2.0192285193274955E-23  -7.153975838430878E-23   -3.905864838127701E-21   -5.256373604082822E-23   -1.6140404313209833E-21  -4.0831462539583667E-22  -8.425971410305543E-23   6.939892108454007E-21    9.205729075220658E-21    6.2697529579981345E-24   1.8656865779507597E-21
2.4999999999999998E-6     1.933699449969295E-23    1.341012972098627E-22    2.724955746163011E-21    8.72625284123193E-22     2.0402407541776038E-21   5.3057943642003485E-22   2.3780423906907816E-22   2.987888981029247E-21    -1.7394876260835212E-20  -7.534232911248159E-23   3.3006794947363332E-21
3.0E-6                    -5.402942955243355E-23   -2.5633905757083797E-22  1.6826965765526447E-20   -3.408355611257735E-21   -1.3320013841746603E-22  3.6601548045888683E-22   2.2540905334538776E-23   3.3110821999497464E-21   -3.158210278620385E-21   -5.094157147589951E-23   -3.933948508090455E-21
3.5E-6                    -1.822133964742529E-22   -1.307658105787995E-21   5.227324056782486E-21    7.86476218200506E-21     3.3982317546529405E-21   3.3473339650159896E-21   -2.373611074691087E-21   -1.1188419789471769E-19  1.7515428000439556E-20   -5.411766427101287E-23   -5.225838746247577E-20
4.0E-6                    7.712435257778605E-22    6.686115775502169E-22    -9.654850394444519E-20   -1.4705833923187775E-20  -6.303744151720523E-21   -5.283084100637876E-22   3.8491290230678687E-22   -1.4428789898998346E-19  -2.635948308526548E-20   -9.979277400737685E-23   -2.444712583498764E-20
4.5E-6                    2.762083093881347E-21    1.1624114775001906E-20   -1.8000740352931027E-19  -2.920411524708245E-20   -7.859873014970508E-20   -4.201892027109295E-20   1.4326362336054746E-20   4.813490935860732E-19    2.283031058969615E-19    -3.0280701861991337E-21  3.5507013212581097E-19
4.9999999999999996E-6     -2.615704304083322E-21   2.074016943256065E-20    3.459931321828158E-19    3.1465722558289624E-19   1.8860584932592506E-19   2.2857986055895297E-21   -1.2050820763371383E-20  7.692298619988815E-19    -8.129855833788744E-20   -1.418764584132822E-20   3.850376401260521E-19
5.5E-6                    -2.5172760440212447E-20  -4.4363772248992624E-20  1.2463925410888073E-18   8.984323910325889E-20    7.412785320488645E-19    1.9531749521923609E-19   -5.51011078043718E-20    -9.206564699082413E-20   -7.748385264977215E-19   -2.0187951267386424E-20  -1.1194450833223717E-18
6.0E-6                    -1.4645978429457558E-20  -2.04291935867977E-19    3.965961095300912E-19    -2.332585787676756E-18   -5.900525800886805E-20   1.8862003577493687E-19   1.6564014697385515E-19   -1.0308442585943617E-18  1.1222108469817038E-19   1.9597424553889317E-20   -2.592505027593821E-18
6.5E-6                    1.1638920105171067E-19   -1.4310879688422157E-19  -5.520826904262069E-18   -9.868939798828517E-19   -3.184935055396544E-18   -1.7382761865016211E-19  2.9127986340986014E-19   -2.9878245970851135E-18  -1.3097382493359502E-18  7.515877877743081E-20    -1.0105491053095576E-19
7.0E-6                    2.132471584912221E-19    7.624182720053334E-19    -1.0566457104951216E-17  1.2610036937027012E-17   -5.484779155490859E-18   -1.276337957064183E-18   -1.0348466399446533E-18  -1.2755129599254221E-17  1.7010734767600033E-18   -2.1853829186110085E-19  7.646865839790242E-18
7.499999999999999E-6      -1.9960058379063998E-19  2.103498478854408E-18    1.5517453511452292E-17   1.2665764228086962E-17   6.966383172898124E-18    -2.2312119746314062E-18  -2.1690522731959527E-18  -2.3283079979322978E-17  2.219102881673309E-17    -9.772317795009924E-19   1.3532024838271614E-17
8.0E-6                    -1.0577088160951153E-18  2.170313295847813E-19    6.158816862644195E-17    -4.132868854306314E-17   4.9620525553922563E-17   8.649141097051563E-18    3.712537942492905E-18    4.520448904123162E-17    -4.317701913309053E-18   2.6765161334987075E-19   -4.9108046241591786E-18
8.5E-6                    -6.951376766264745E-19   -7.985311030644891E-18   -1.320190315112733E-17   -7.162706389951631E-17   6.85329047863059E-17     3.857946100051735E-17    1.5135239063505238E-17   2.1281235186771553E-16   -1.1861065006511043E-16  4.86308849754674E-18     -6.521399741812928E-17
9.0E-6                    2.425481060428215E-18    -1.254130888425047E-17   -2.1728543587775373E-16  8.235341140805057E-17    -6.585269837157833E-17   3.0433492975174806E-17   3.947854768453418E-18    4.816855992600111E-17    -4.9898541348073374E-17  -1.5122234838803163E-18  -1.0033751407837579E-16
9.499999999999999E-6      4.979128901263345E-18    6.16002549728585E-18     -9.129795340699015E-17   2.8680281796576535E-16   -2.315766961980224E-16   -7.851092714125506E-17   -5.3552299991486325E-17  -8.458464219857547E-16   3.508344035357712E-16    -3.832860081665907E-17   4.004565481128512E-17
9.999999999999999E-6      3.4223332285169093E-19   4.2710354945737666E-17   5.318538035245908E-16    6.902826031008616E-17    2.2337241511899753E-16   -6.820875611412127E-17   -7.10132939289138E-17    -1.172129430183291E-15   2.3616048297521626E-16   -7.40774847317472E-17    2.7220903748755554E-16
1.05E-5                   -9.518270422311685E-18   5.484589504824945E-17    5.221052824316425E-16    -5.584820030806226E-16   1.6146771687718528E-15   5.373328874822783E-16    1.52138714287221E-16     1.1461740971035535E-15   -1.051252499403116E-15   -4.012852681247389E-17   -2.420355055915416E-17
1.1E-5                    -1.4075176712065102E-17  5.032088120555893E-18    -7.872002572484656E-16   -5.760914233342352E-16   2.484889410254955E-15    1.5835166479452658E-15   5.494219338860086E-16    3.7921873914541486E-15   -1.6107163073721055E-15  -1.4723521482181553E-17  -1.3692052955318726E-15
1.15E-5                   -1.1074540079030128E-17  -1.3308980656099026E-16  -1.122306657211881E-15   7.778149640058981E-16    1.023140105209503E-15    1.9222351945589395E-15   3.9772274105755973E-16   -1.8143093269251855E-16  5.581824896794378E-16    -3.470724488047899E-16   -2.9221190318902946E-15
1.2E-5                    1.0425592184130378E-17   -3.4318154679176414E-16  1.1325159209712377E-15   2.3085473970970034E-15   1.352713349040831E-16    1.8456575465116063E-15   -7.493565367780416E-16   -1.0248651044839403E-14  1.796643348163092E-15    -1.380886696801027E-15   -3.07657951930726E-15
1.2499999999999999E-5     8.897261366945772E-17    -2.6652050828523175E-16  1.7194167287348295E-15   2.118726610419612E-15    8.721996299229165E-15    6.297626076918176E-15    -8.217455595895014E-16   -1.097251341081725E-14   -3.549066462362826E-15   -3.018970647511681E-15   -3.0964506266452786E-15
1.3E-5                    1.5876198059783947E-16   7.925747212839912E-16    -2.0033322445903683E-15  9.787712212986073E-16    3.2524734282790204E-14   2.2380380887361753E-14   4.4236341594941284E-15   6.4858727263440645E-15   -1.1473697613458288E-14  -5.0319000269942825E-15  -1.0241385178084471E-14
1.35E-5                   -5.471741937319889E-17   2.3101752661564753E-15   -2.867730636182045E-16   1.5876981821968262E-15   6.502075347785537E-14    5.153924374726643E-14    1.5239361339887295E-14   1.439938207813385E-14    -1.3062994342682057E-14  -8.531669156893243E-15   -3.5211947171633614E-14
1.4E-5                    -5.578916503422882E-16   1.1694719895734113E-15   1.2741611786572557E-14   4.979551085434387E-15    9.771126708716462E-14    9.132194876410757E-14    2.338777603306998E-14    -2.8589068272976233E-14  -1.6681247095575507E-14  -1.729503791438872E-14   -8.379758765886459E-14
1.45E-5                   -4.771206928944349E-16   -4.2918759150992424E-15  1.4198714722506246E-14   1.47496035236241E-14     1.4596886091013125E-13   1.593198407190844E-13    2.4955415467098363E-14   -1.0106726233564345E-13  -4.455337126175017E-14   -3.7214731241927635E-14  -1.5364761206572414E-13
1.4999999999999999E-5     9.050381506126376E-16    -6.9714542492136265E-15  -1.4160505195699476E-14  4.012971926462278E-14    2.615157683777355E-13    3.233805565562929E-13    4.856936947350695E-14    -1.1073272055441319E-13  -9.712604650537421E-14   -7.619768188557003E-14   -2.5758095649234857E-13
1.55E-5                   1.954227890049088E-15    3.825054620818762E-15    -2.1586952418673905E-14  7.772497519736136E-14    5.183258914277079E-13    7.020771335020496E-13    1.6069727236412433E-13   -4.503828416902772E-14   -1.634897912312301E-13   -1.5162675600245606E-13  -4.737216106693726E-13
1.6E-5                    4.918287457132092E-17    2.0782933321384182E-14   5.969738891767432E-14    1.1354641196867803E-13   9.81848526796739E-13     1.4272099069605044E-12   4.136440509412728E-13    -1.104046946324388E-13   -3.028539048274304E-13   -3.055914414537773E-13   -9.566148418520818E-13
1.6499999999999998E-5     -2.5666336995563566E-15  1.5761623484406847E-14   1.575806894862249E-13    1.9869987873012852E-13   1.6581580553157047E-12   2.618890587846953E-12    7.929867419052557E-13    -5.57232699122185E-13    -6.452676014830683E-13   -6.060951980749011E-13   -1.844091996624926E-12
1.7E-5                    1.146277282531326E-15    -1.4515125815934367E-14  1.0138458561751846E-13   4.678856453085701E-13    2.4521862493070667E-12   4.447929320158888E-12    1.3071873328790812E-12   -1.2760464485586464E-12  -1.208138716232611E-12   -1.1089380966319468E-12  -3.1822010434282565E-12
1.75E-5                   1.0148983606100657E-14   -1.2488939401318392E-14  -3.0787627937947335E-14  9.254648926918524E-13    3.2869034431203575E-12   7.281021177792197E-12    2.2315862987216635E-12   -1.7868677767138528E-12  -1.8136997123570858E-12  -1.822516811152383E-12   -5.1200247950984215E-12
1.8E-5                    8.906430135044995E-15    7.068248816226239E-14    2.0897134833998257E-13   1.3011779118900845E-12   4.474058116450677E-12    1.1701591358733972E-11   4.189747904370668E-12    -1.9892833712665083E-12  -2.527693103312906E-12   -2.8154437457806197E-12  -8.24277799322962E-12
1.85E-5                   -8.117514840237831E-15   1.5978423523784364E-13   1.0435763783725206E-12   1.5550852404824337E-12   6.9614229682881985E-12   1.806572354289916E-11    7.735959147026823E-12    -2.9413709659053388E-12  -4.34529978403715E-12    -4.523993687541824E-12   -1.3329893976296885E-11
1.8999999999999998E-5     -7.63581696247849E-15    1.1859876375876956E-13   1.8338838797799315E-12   2.66815596689111E-12     1.1786276152136735E-11   2.5632424184655402E-11   1.276009596240421E-11    -6.4268050978237926E-12  -9.009562513231756E-12   -7.9265120025398E-12     -2.0236603447648948E-11
1.95E-5                   5.1311655125264526E-14   2.064482376428198E-14    1.6830117414807848E-12   6.293014509887475E-12    1.880834687512157E-11    3.2193072085838384E-11   1.8575347350074562E-11   -1.3280784924611721E-11  -1.738767531081084E-11   -1.3974098632584894E-11  -2.7090052433788064E-11
1.9999999999999998E-5     1.4008335327241567E-13   2.315677615762399E-13    1.0362108124506387E-12   1.296258118112735E-11    2.6044258410244613E-11   3.52747665799973E-11     2.474630571078944E-11    -2.2182779738477592E-11  -2.777525097837226E-11   -2.2253289093839824E-11  -3.137457597316087E-11
2.05E-5                   1.6862776095805714E-13   9.800068556892973E-13    2.070005875203274E-12    2.0966654348997372E-11   3.077342241159887E-11    3.4250539956681217E-11   3.1328744124906446E-11   -3.0467315909425346E-11  -3.6372550778970056E-11  -3.01431467871209E-11    -3.2271129435443476E-11
2.1E-5                    1.4014832665123315E-13   1.886921924947785E-12    6.614566840222335E-12    2.7737064928347633E-11   3.157511217322776E-11    3.0762335937152766E-11   3.775332184471797E-11    -3.618466663176608E-11   -4.002241155384177E-11   -3.4030434492341697E-11  -3.143837920943037E-11
2.1499999999999997E-5     2.581673827967969E-13    2.3574821179321086E-12   1.3772919452432433E-11   3.2151661899246115E-11   2.906379733494024E-11    2.6277971469394334E-11   4.203415587735993E-11    -3.899267788848843E-11   -3.831183761563718E-11   -3.219168178465484E-11   -3.097758600221509E-11
2.2E-5                    7.442205524093159E-13    2.7449375196171702E-12   2.0487067147011536E-11   3.4643197479996754E-11   2.4530535331558463E-11   1.9754317563054144E-11   4.226088648684427E-11    -3.8909547907528906E-11  -3.26407650340699E-11    -2.6489714395995748E-11  -3.104295559807909E-11
2.2499999999999998E-5     1.5227491924194286E-12   4.744642426149018E-12    2.4717404571834898E-11   3.5192395552108E-11      1.82770635700418E-11     9.11164901413862E-12     3.8817723388157035E-11   -3.489188549016217E-11   -2.3833640541528594E-11  -2.0568101184077994E-11  -2.99581189546395E-11
2.3E-5                    2.2990384400182728E-12   9.867290156631667E-12    2.721178755271645E-11    3.2480821005417474E-11   9.582955942069236E-12    -5.123116231177251E-12   3.374949596529021E-11    -2.5583023519815946E-11  -1.1784681069590162E-11  -1.6054174114422435E-11  -2.6021594937783908E-11
2.35E-5                   3.1953623048215517E-12   1.7281451942550205E-11   2.9558153971093967E-11   2.5574561016741055E-11   -2.1717197135537956E-12  -1.9721789779929522E-11  2.753715957903977E-11    -1.1475104855233473E-11  2.709465913850175E-12    -1.088264576581901E-11   -1.8135943369929567E-11
2.4E-5                    5.2302266480686335E-12   2.374177894569523E-11    3.1327556513305353E-11   1.5406344333693388E-11   -1.708217125615471E-11   -3.33638802431269E-11    1.7896658205519283E-11   4.728272192423774E-12    1.7509305591418198E-11   -1.5566046530946714E-12  -4.9600203747666675E-12
2.45E-5                   9.71242287026726E-12     2.6260741549513784E-11   3.034223606955891E-11    3.4947155703474456E-12   -3.527507923465399E-11   -4.9693928683752365E-11  2.4824173105761074E-12   2.0736331285054054E-11   3.16341252191183E-11     1.3319939382948665E-11   1.5165030887849646E-11
2.4999999999999998E-5     1.6726152781583776E-11   2.478178279431192E-11    2.552781935104334E-11    -1.0425888241913874E-11  -5.692339479807995E-11   -7.397901384460293E-11   -1.873757185464891E-11   3.7306773359747495E-11   4.715330398346965E-11    3.193049154201067E-11    4.2940419409864554E-11
2.55E-5                   2.422789523401841E-11    2.185002497266971E-11    1.8031634743713505E-11   -2.8416668327709788E-11  -8.121234673904566E-11   -1.074490542039642E-10   -4.507966966872424E-11   5.7529013002485884E-11   6.704266980828718E-11    5.11245356796579E-11     7.756287084285198E-11
2.6E-5                    2.907652785797674E-11    1.9754326783928572E-11   8.84986086138119E-12     -5.193599096798244E-11   -1.0598940272024046E-10  -1.465820112382968E-10   -7.775339855544944E-11   8.369985980967387E-11    9.159728781030275E-11    6.913239713566608E-11    1.1791476117109588E-10
2.65E-5                   2.938131293576493E-11    1.8385357993064332E-11   -3.629762867121954E-12   -8.04080303736171E-11    -1.2934808026300787E-10  -1.8747479728659895E-10  -1.1887579199681435E-10  1.1572894586083486E-10   1.187315308273713E-10    8.720878211016768E-11    1.6363682795714656E-10
2.7E-5                    2.5915454458071897E-11   1.5713026103667243E-11   -2.2511603171597425E-11  -1.1249152452727361E-10  -1.513616556585182E-10   -2.2890874141455367E-10  -1.6836402007101635E-10  1.5239000613492478E-10   1.4797885965292585E-10   1.0942233629631451E-10   2.1443268672443128E-10
2.7499999999999998E-5     2.1071141244400655E-11   9.586569843196577E-12    -4.9013217788904345E-11  -1.4762750378514213E-10  -1.7332050092129594E-10  -2.706822778379175E-10   -2.237713102511728E-10   1.9258560225458085E-10   1.8206972353662386E-10   1.4023619049880613E-10   2.687932086077608E-10
2.8E-5                    1.637015271022584E-11    -1.1999470822634282E-12  -8.11713799682252E-11    -1.851483698453323E-10   -1.9517098729371195E-10  -3.107117069580881E-10   -2.8332894328523525E-10  2.344559245045369E-10    2.228785166042135E-10    1.8074664234363508E-10   3.2425473241679616E-10
2.8499999999999998E-5     1.1042424354993027E-11   -1.679175405050124E-11   -1.1596049250109347E-10  -2.2237945534268E-10     -2.148139514447516E-10   -3.4544921810642535E-10  -3.472460195493648E-10   2.742992104686467E-10    2.6658420856049425E-10   2.265334009893189E-10    3.790179363858848E-10
2.9E-5                    2.856891516081002E-12    -3.630058619864862E-11   -1.5164434252961324E-10  -2.554055040624685E-10   -2.3072795492189456E-10  -3.729929531062631E-10   -4.150174207360373E-10   3.0798800569315036E-10   3.0459993681237685E-10   2.697036973557957E-10    4.3264354115266483E-10
2.95E-5                   -1.0125253581733278E-11  -5.818422347235901E-11   -1.8748779138500759E-10  -2.8257581053922314E-10  -2.4463308092418525E-10  -3.9434591044967815E-10  -4.826190828722046E-10   3.3356159556812094E-10   3.297632705975934E-10    3.0375820527717376E-10   4.844844562503058E-10
2.9999999999999997E-5     -2.8795501431305546E-11  -8.164903812400697E-11   -2.2215125928874612E-10  -3.062253125284687E-10   -2.6020195563583866E-10  -4.104477451737051E-10   -5.436469263548989E-10   3.5142522398264423E-10   3.4102083669953405E-10   3.268213757465793E-10    5.313311637065825E-10
3.05E-5                   -5.33180836251563E-11    -1.0808394137868819E-10  -2.5385152604907205E-10  -3.2949878765400767E-10  -2.7832274425689227E-10  -4.180189219717622E-10   -5.928049874324458E-10   3.6181277794062493E-10   3.4196197311055455E-10   3.4067151638819105E-10   5.669436793460582E-10
3.1E-5                    -8.31031007366939E-11    -1.403008726045041E-10   -2.822822715441824E-10   -3.512487276214922E-10   -2.9353554866773136E-10  -4.0923624614164076E-10  -6.270644023359934E-10   3.628081009463664E-10    3.3535306826739707E-10   3.4739763881314745E-10   5.84119751356949E-10
3.15E-5                   -1.1601925266391781E-10  -1.793338228947505E-10   -3.0907648254755686E-10  -3.645269336885498E-10   -2.9543725429224756E-10  -3.761330272508202E-10   -6.432652128002167E-10   3.5078901023821625E-10   3.19196923024824E-10     3.4694270783910353E-10   5.771411632418798E-10
3.2E-5                    -1.4834866446532424E-10  -2.2184831729738303E-10  -3.350862018653372E-10   -3.599490040020453E-10   -2.744178543606531E-10   -3.15289487585709E-10    -6.35644524877326E-10    3.2152947743262167E-10   2.8744723939675143E-10   3.3658702100481706E-10   5.423760843094704E-10
3.25E-5                   -1.7669347133782406E-10  -2.6127909257869465E-10  -3.5702023907494035E-10  -3.3027520313215526E-10  -2.2728764198156645E-10  -2.2824444009608513E-10  -5.964332645198189E-10   2.70329588323369E-10     2.340119897027816E-10    3.1160455520823296E-10   4.772273376580547E-10
3.2999999999999996E-5     -2.0050819711933494E-10  -2.918903175010327E-10   -3.67254196051663E-10    -2.7283035752512604E-10  -1.5813349764614608E-10  -1.1777653738941742E-10  -5.184381041655694E-10   1.9247262995125193E-10   1.561258117783557E-10    2.667544679540464E-10    3.790209259155898E-10
3.35E-5                   -2.2249821203414398E-10  -3.1166905424962724E-10  -3.573208290627472E-10   -1.8950272585729356E-10  -7.359170011124836E-11   1.5940774828339243E-11   -3.966414773195713E-10   8.529815256539337E-11    5.420309404882296E-11    1.9849012678725512E-10   2.4461243308555384E-10
3.4E-5                    -2.459438297541592E-10   -3.213997533036436E-10   -3.219563540525267E-10   -8.49355447648583E-11    2.301589529665748E-11    1.756686782419166E-10    -2.2828774930592208E-10  -5.006765128124706E-11   -7.099233606176124E-11   1.0639207847678894E-10   7.061323401507588E-11
3.45E-5                   -2.7106783805450896E-10  -3.215713128246098E-10   -2.605455833402327E-10   3.706241180674184E-11    1.3285027902731624E-10   3.6361204188271326E-10   -1.2847645759205274E-11  -2.0997594441243387E-10  -2.2008108982797613E-10  -7.92687468991288E-12    -1.458115343510033E-10
3.5E-5                    -2.934051830301591E-10   -3.1067994287573724E-10  -1.754375546971534E-10   1.7726388113340084E-10   2.5729688432933753E-10   5.773887143778572E-10    2.485352896984439E-10    -3.913647564052842E-10   -3.9334891538461057E-10  -1.434859138740182E-10   -4.059024415221698E-10
3.5499999999999996E-5     -3.052154630640675E-10   -2.861618173226583E-10   -6.875619803278159E-11   3.411192795358453E-10    3.938903492224529E-10    8.097036677280736E-10    5.556072181876311E-10    -5.928720549788488E-10   -5.878123387657838E-10   -3.008787400026433E-10   -7.088260712408425E-10
3.6E-5                    -2.987270896305209E-10   -2.4602257096623445E-10  6.006116036598856E-11    5.335209306663461E-10    5.374039472009057E-10    1.0525333942947165E-9    9.113321931793199E-10    -8.128227778468319E-10   -7.971369558593074E-10   -4.80150206585279E-10    -1.0518327682369723E-9
3.65E-5                   -2.692635763571099E-10   -1.8893149854860018E-10  2.1412260074790397E-10   7.522360319698317E-10    6.838368789907619E-10    1.3015467492500827E-9    1.3187219885124945E-9    -1.0470637612391508E-9   -1.0145992308834972E-9   -6.782946166306025E-10   -1.4300858917249632E-9
3.7E-5                    -2.166689416991094E-10   -1.1276556823797046E-10  3.959453976894196E-10    9.863606770803476E-10    8.311447171824714E-10    1.555703994229498E-9     1.7722495745130388E-9    -1.2889803859963804E-9   -1.2348406004534147E-9   -8.895439364369518E-10   -1.835746266360488E-9
3.75E-5                   -1.4411894637950422E-10  -1.3435553296279604E-11  6.035131067981635E-10    1.2215854100706333E-9    9.757602221645911E-10    1.8118662570809821E-9    2.2526355517427116E-9    -1.5300560052356475E-9   -1.4516647441864305E-9   -1.1077928894299183E-9   -2.2571414012381346E-9
3.7999999999999995E-5     -5.4689033148291245E-11  1.1427579166777308E-10   8.291054464012839E-10    1.4473493005660607E-9    1.110584499337579E-9     2.0593378569773017E-9    2.7325479178718048E-9    -1.7587722903442362E-9   -1.6546695713194033E-9   -1.3276117760697557E-9   -2.6787382123191095E-9
3.85E-5                   5.202751044814201E-11    2.736761112712791E-10    1.062235913925657E-9     1.6591745715201233E-9    1.2281010983414744E-9    2.2795258509022545E-9    3.1883856924812743E-9    -1.9596107231882166E-9   -1.829195065412384E-9    -1.542117913641302E-9    -3.0816641625268926E-9
3.9E-5                    1.8015394564264671E-10   4.626474133645856E-10    1.2937842433049773E-9    1.854092702317405E-9     1.3245216620432598E-9    2.4517702356668056E-9    3.605303646812568E-9     -2.1155254562819767E-9   -1.9597249752101964E-9   -1.7401236693012871E-9   -3.444251421427216E-9
3.95E-5                   3.3368501036304643E-10   6.724368582961995E-10    1.5170481140103237E-9    2.023422258931392E-9     1.3990986875327914E-9    2.5610048557157014E-9    3.970192664837315E-9     -2.2125943251420487E-9   -2.0329674590243236E-9   -1.906399964279632E-9    -3.7424188396806895E-9
3.9999999999999996E-5     5.116219377488119E-10    8.903939384482792E-10    1.7249469420848936E-9    2.149560026300149E-9     1.4494995908995738E-9    2.6000208992986896E-9    4.2612897759966875E-9    -2.241154961723862E-9    -2.0383296289656575E-9   -2.025786664747068E-9    -3.950142739795762E-9
4.0499999999999995E-5     7.069065161287129E-10    1.105096060627109E-9     1.9069845447680915E-9    2.2099184467714236E-9    1.4692671482592484E-9    2.563012650620466E-9     4.4460542537837E-9       -2.1914223303411943E-9   -1.9670675630947174E-9   -2.0874683135838503E-9   -4.040795449895063E-9
4.1E-5                    9.107194972718328E-10    1.30990425809769E-9      2.049621620807361E-9     2.1847981285785723E-9    1.449849458460533E-9     2.43680772683592E-9      4.488244375135034E-9     -2.04941809500304E-9     -1.8118576313510473E-9   -2.0850366595691643E-9   -3.989768465823901E-9
4.15E-5                   1.1178736645447093E-9    1.502222161059814E-9     2.139529243172522E-9     2.0626295964884444E-9    1.3836137427390335E-9    2.201029528989158E-9     4.355314683871861E-9     -1.7995744050723447E-9   -1.5666849510951432E-9   -2.01235103100784E-9     -3.7769117709113E-9
4.2E-5                    1.3268672092574364E-9    1.6795320443520864E-9    2.1658656609744917E-9    1.8388810101340948E-9    1.264551778476927E-9     1.8395249160483939E-9    4.020005960346484E-9     -1.4317851116877247E-9   -1.2265733176571688E-9   -1.8600323124383322E-9   -3.3864228454125135E-9
4.2499999999999996E-5     1.5331672016258304E-9    1.835583193014358E-9     2.1189714737976506E-9    1.5110442017041233E-9    1.0883049930853659E-9    1.3513518526326848E-9    3.45924490051727E-9      -9.447225096066672E-10   -7.878452892249774E-10   -1.6168597183389801E-9   -2.8044489205212838E-9
4.2999999999999995E-5     1.7221238553915966E-9    1.9589604598433514E-9    1.9870489346155E-9       1.0752070219827577E-9    8.542425353446194E-10    7.487901845570161E-10    2.655558527733197E-9     -3.425006979675633E-10   -2.495947136003892E-10   -1.2748189269372733E-9   -2.018057899965645E-9
4.35E-5                   1.8697837945003525E-9    2.0339651664794907E-9    1.7549143694687051E-9    5.271668789936065E-10    5.679220064912259E-10    4.475981154430252E-11    1.5999711882377572E-9    3.6921236592932325E-10   3.8437136865728997E-10   -8.326831309583579E-10   -1.0182722953897396E-9
4.4E-5                    1.9524825003068177E-9    2.0430063492951623E-9    1.4073373860243472E-9    -1.3356397406934013E-10  2.3954901848298053E-10   -7.557885338571243E-10   2.9234671336428883E-10   1.181525292314792E-9     1.1045030183663965E-9    -2.952014507251749E-10   1.949346309919838E-10
4.45E-5                   1.9567818793626173E-9    1.9699195117986743E-9    9.353863391395546E-10    -9.002795988428292E-10   -1.2201987735231515E-10  -1.6513670729031403E-9   -1.2598320822619826E-9   2.0775736093987055E-9    1.895838877074786E-9     3.299665878523473E-10    1.6102850234361335E-9
4.4999999999999996E-5     1.880542438137923E-9     1.8029106158141224E-9    3.4124745067562794E-10   -1.7579028624178777E-9   -5.142502626206032E-10   -2.632498125183133E-9    -3.0397639161835056E-9   3.0318121505066295E-9    2.73894594870293E-9      1.0336541098114427E-9    3.2069802897255285E-9
4.5499999999999995E-5     1.724875350364856E-9     1.5350315680437948E-9    -3.6218220762870785E-10  -2.6838231711762907E-9   -9.393767380350817E-10   -3.6763224337286616E-9   -5.0172269341001674E-9   4.014861462444392E-9     3.610363372026654E-9     1.8039035669083251E-9    4.957216016438748E-9
4.6E-5                    1.4854972017156599E-9    1.1617783733365162E-9    -1.1564643010611845E-9   -3.649873776087353E-9    -1.3974331105858217E-9   -4.752391442295953E-9    -7.147641706570298E-9    4.9978407151421276E-9    4.482138054463415E-9     2.624289272643542E-9     6.825222587487644E-9
4.65E-5                   1.1513264794413394E-9    6.788612722420482E-10    -2.023096606180205E-9    -4.6246295458812074E-9   -1.880760880074864E-9    -5.832431933516785E-9    -9.375355849658253E-9    5.9509100349511876E-9    5.321422125010488E-9     3.473971221884765E-9     8.762941915558473E-9
4.7E-5                    7.100372261084512E-10    8.394458130911879E-11    -2.944795964414382E-9    -5.574956908968046E-9    -2.3752805875195215E-9   -6.89327473195121E-9     -1.1634911877736046E-8   6.838251644641852E-9     6.091811140975911E-9     4.328981635087937E-9     1.0707092277988258E-8
4.7499999999999996E-5     1.5444024212993385E-10   -6.180193944628077E-10   -3.9021675391949686E-9   -6.465922939917578E-9    -2.8667822595222817E-9   -7.910156371133016E-9    -1.3846949478266152E-8   7.615920118925369E-9     6.756588195393432E-9     5.162993868730576E-9     1.2581991414397307E-8
4.8E-5                    -5.148049522207125E-10   -1.4110495072897958E-9   -4.869424292810059E-9    -7.259563377193333E-9    -3.345943421801677E-9    -8.848214583923399E-9    -1.591530513311787E-8    8.235393657778609E-9     7.281442517347348E-9     5.9471995435283E-9       1.4307086621418025E-8
4.85E-5                   -1.289621556050195E-9    -2.2704733142702413E-9   -5.812761195541595E-9    -7.914503804242005E-9    -3.808227521545056E-9    -9.661937237645942E-9    -1.773290511445433E-8    8.649742514272395E-9     7.634261744150383E-9     6.650404482685245E-9     1.5803424640702354E-8