% Model:              analysis.mph
% Version:            COMSOL 6.0.0.405
% Date:               Jul 10 2023, 17:43
% Dimension:          1
% Nodes:              10001
% Expressions:        11
% Description:        Point graph
% Time (s)                Displacement field, Y component Displacement field, Y component Displacement field, Y component Displacement field, Y component Displacement field, Y component Displacement field, Y component Displacement field, Y component Displacement field, Y component Displacement field, Y component Displacement field, Y component Displacement field, Y component
0                         0                        0                        0                        0                        0                        0                        0                        0                        0                        0                        0
1.0E-6                    -1.786875705649551E-45   2.3693044050477976E-44   5.125500849217107E-45    2.486516298958853E-45    2.7504304063641736E-46   5.266281945240927E-47    3.07054939098433E-48     2.1209271942430006E-49   8.358711346504158E-51    1.0061074032356259E-51   2.0537541662177516E-53
2.0E-6                    7.733474893355563E-43    -2.115829449250139E-43   -4.3430573238979486E-44  -2.8118329010667337E-44  -3.3342548880777014E-45  -6.033761512473098E-46   -3.397008211044821E-47   -2.27453049732213E-48    -9.682885082381772E-50   -8.69626121108084E-51    -1.6729820548254304E-52
3.0E-6                    -1.166267665974522E-41   -2.1436499657406965E-43  -7.967404688333493E-44   6.599229370705858E-44    1.384320495917651E-44    2.6057504435012832E-45   1.351517465554745E-46    1.1571493497023436E-47   6.248551505911791E-49    3.263398770623897E-50    4.3618916353489515E-52
4.0E-6                    5.72025540473436E-41     8.874334920449981E-42    1.9752622878993855E-42   4.032154896535952E-43    -1.7768907507054178E-44  -7.689159098096422E-45   -2.95068206011793E-46    -6.04659853487729E-47    -3.884560504096755E-48   -2.411446623285139E-49   -3.023805574422026E-51
4.9999999999999996E-6     -9.581727034624148E-41   -4.840683023462739E-41   -1.0122468304344531E-41  -4.074112760358601E-42   -1.5093584338360947E-43  5.031691716869032E-45    -9.5509744288591E-47     1.7142027589400646E-46   1.1047991120293805E-47   1.6824003490317477E-48   2.999785455936378E-50
6.0E-6                    -1.92332100873271E-40    1.0800314394193094E-40   2.208197091136547E-41    1.471037145503494E-41    1.035995077481063E-42    1.199466320754162E-43    4.4971647936642504E-45   3.322478722152349E-46    1.8079280647367633E-47   -6.154086538766524E-48   -1.4596846497819718E-49
7.0E-6                    1.0415815463423764E-39   6.317713465816826E-41    9.651255981023999E-42    -1.6045418163018781E-41  -3.0246650858654596E-42  -7.822002727417338E-43   -2.5038562569169274E-44  -4.338112208863142E-45   -2.252728804214418E-46   6.356872065454444E-48    2.7375566156736935E-49
8.0E-6                    -7.57648226639612E-40    -9.566306116677328E-40   -1.6883033266603765E-40  -5.897939717035137E-41   3.7612323919391706E-42   2.235448083482893E-42    8.18452608758246E-44     1.3397019510193018E-44   6.261736257683824E-46    4.1356105677843225E-47   5.719311896412746E-49
9.0E-6                    -3.7540321716323516E-39  1.730867224526573E-39    2.8866173232088886E-40   2.264194229477828E-40    4.777758804024489E-42    -1.2928157341523906E-42  -1.1794165308698376E-43  -7.414331414286729E-45   -2.876676115539023E-46   -2.1342395069569762E-46  -4.577558285873877E-48
9.999999999999999E-6      7.051394915127394E-39    1.9992728858346576E-39   3.6148380320886657E-40   -1.401681725513219E-40   -3.351696048906131E-41   -1.2312142845687212E-41  -2.6104044074161336E-43  -6.96207475392914E-44    -2.876793394155093E-45   4.2634848368740555E-46   1.0443614343474174E-47
1.1E-5                    7.840559314740737E-39    -1.1384739376958217E-38  -1.831091607728088E-39   -7.399968438197579E-40   7.634052254555164E-41    3.935059587650828E-41    1.5497525589014428E-42   2.0118267327932503E-43   8.069622264568798E-45    5.778241485127793E-47    -1.9782118143847993E-48
1.2E-5                    -2.872358834433699E-38   6.277123065701719E-39    6.715640767787424E-40    1.6475094764352534E-39   -4.669757994622087E-41   -2.045460676770316E-41   -1.8545163602276113E-42  -2.1783119301206535E-44  -1.8229337800790105E-45  -2.766863676000761E-45   -5.1947467889055755E-47
1.3E-5                    -9.405990323032841E-39   3.6732790348752894E-38   6.94673858339416E-39     2.9577440205582563E-40   -2.750160883128071E-40   -1.4964009086869174E-40  -4.665986176321763E-42   -9.35902214032229E-43    -3.502439145166643E-44   7.174040390287461E-45    1.455885138747616E-46
1.4E-5                    8.540223316032042E-38    -5.740227236226584E-38   -1.0216502432601877E-38  -6.228643636452784E-39   8.778244403572981E-40    3.594341934742106E-40    1.4690381387227538E-41   1.3041741690475598E-42   5.080343742537984E-44    -2.6955933412382286E-45  -1.0799431715313663E-46
1.4999999999999999E-5     -3.044871330841E-39      -6.302209408667708E-38   -1.7248232234232875E-38  8.344427448042329E-39    -5.123448011953024E-40   -2.2523305103793375E-43  2.17178589821445E-42     2.608498817390537E-42    1.091426661878518E-43    -3.143340877978171E-44   -4.730567371008631E-46
1.6E-5                    -2.1037990651826313E-37  2.074879688794575E-37    5.848644353693602E-38    1.2541300830948603E-38   -2.7901546912967816E-39  -1.3767618390366872E-39  -5.239855457366557E-41   -6.928620241366423E-42   -2.6296432512532044E-43  7.813862031209826E-44    1.6332157651559007E-45
1.7E-5                    7.903032626877676E-38    -1.6466591624757544E-38  8.420499823830837E-39    -5.420489538932865E-38   6.489163904922593E-39    2.1723404365482252E-39   2.2451968524302838E-41   -7.150184053786567E-42   -4.390571063921569E-43   4.846861728543409E-45    -9.979040555991886E-46
1.8E-5                    4.633966028063491E-37    -4.189200168059375E-37   -2.3613098494451743E-37  3.3688807126250356E-39   3.992779016770678E-41    1.7075568254488434E-39   1.4505098244591767E-40   2.868347864131809E-41    1.222120745898023E-42    -3.6248398272857536E-43  -6.169506625795473E-45
1.8999999999999998E-5     -4.917989193923635E-37   5.166940656018384E-37    1.7764730329729852E-37   2.3819682644387776E-37   -2.203894743589282E-38   -1.0670470203034687E-38  -7.444126191941679E-41   2.6111231757122233E-41   2.1179655735433747E-42   5.14354240675411E-43     1.4365201468237249E-44
1.9999999999999998E-5     -1.0912254559052436E-36  5.447262972740115E-38    7.563244243485444E-37    -1.5377215223988498E-37  3.370955229696557E-38    8.89159870367983E-39     -4.2907434375550495E-40  -1.2120315720286823E-40  -5.787914133916838E-42   8.302943182035518E-43    8.335716090617952E-45
2.1E-5                    2.4328212411279023E-36   -2.052905038962636E-36   -1.1485664725295457E-36  -8.687304139809366E-37   2.3580818732188263E-38   2.925522890328389E-38    1.565480428601597E-40    -9.651796314450886E-41   -9.63800486919497E-42    -3.035476855112891E-42   -7.071260724397848E-44
2.2E-5                    3.5967256952369714E-36   3.700330053702919E-36    -2.097339154243611E-36   7.84683161280001E-37     -1.6140529253833936E-37  -6.94817743232292E-38    1.3386255999461969E-39   5.017407539942297E-40    2.4960022309890996E-41   -7.67998173592826E-44    3.3274647923408864E-44
2.3E-5                    -9.550730494735854E-36   5.536365108615648E-36    4.7110075892397685E-36   2.76921103439863E-36     1.4348539604023073E-37   -4.0414950998038444E-38  -4.783149492262348E-40   2.8660367920430853E-40   4.1355642127902085E-41   1.1738277347213912E-41   2.5170341937985837E-43
2.4E-5                    -1.500583703384165E-35   -2.0184559598671096E-35  5.5894343191707955E-36   -2.6130796595148407E-36  4.553586676769924E-37    2.991648408907946E-37    -3.235031389373625E-39   -1.832833047265179E-39   -9.26101017496436E-41    -9.331927337966782E-42   -2.912818775806834E-43
2.4999999999999998E-5     2.9179920055264545E-35   -1.3114733014679367E-35  -1.5353506833641598E-35  -7.821709173301207E-36   -1.0549556630274291E-36  -6.567935336567828E-38   1.7721832807164817E-39   -6.557550621116785E-40   -1.72095029306121E-40    -3.812305890761304E-41   -7.838345241307604E-43
2.6E-5                    5.952495150256365E-35    7.603712970122468E-35    -1.5774404528643034E-35  6.210409258078005E-36    -8.048573611222252E-37   -1.0348342465325124E-36  2.0374305394569002E-39   5.5704980610218146E-39   2.938527808929906E-40    5.920707229401291E-41    1.4090498283158964E-42
2.7E-5                    -6.79587490494903E-35    3.7336189428252364E-35   4.2203612477528597E-35   1.9316728594128168E-35   4.45237116092031E-36     6.725639826949001E-37    -3.770715808899605E-39   1.1380703603230162E-39   6.724444893143924E-40    1.150150427186112E-40    2.3537263463504868E-42
2.8E-5                    -2.0361725031236055E-34  -2.3513253562724757E-34  4.775381388460505E-35    -8.566505176072345E-36   3.6919916844862526E-37   3.219987318067421E-36    3.152299805417069E-38    -1.3336408357240155E-38  -8.021379010480446E-40   -2.7648947219043043E-40  -5.735852111461143E-42
2.9E-5                    1.075891576389714E-34    -1.4409636983491326E-34  -9.774946224670433E-35   -3.8688115122400677E-35  -1.5051968236986608E-35  -2.7836499082656075E-36  -5.039786551407975E-39   -1.0234206584243005E-39  -2.3467952583508688E-39  -3.320105572586479E-40   -7.05442672228393E-42
2.9999999999999997E-5     6.066343846813346E-34    6.058061272178707E-34    -1.4323537706838386E-34  -7.744049283385093E-36   3.322150385569983E-36    -9.465994435642004E-36   -2.283771575462137E-37   2.1331646575010123E-38   1.9344065084083625E-39   1.1312842965126318E-39   2.142887592129781E-41
3.1E-5                    -7.910752526962646E-36   5.744920764798788E-34    1.8005164979754067E-34   4.3964153541437754E-35   4.4463178096306663E-35   8.396186991298705E-36    7.751551725376948E-38    -4.6793993072619156E-39  7.130457970577334E-39    9.055626409964067E-40    2.103571891994295E-41
3.2E-5                    -1.596002401289125E-33   -1.2234548295840113E-33  3.874459767378907E-34    9.050850946018631E-35    -1.479237451323802E-35   2.6652711380381283E-35   1.0690017406833919E-36   4.2662860843878495E-40   -4.501235423703873E-39   -4.2233468437619564E-39  -7.431221141763142E-41
3.2999999999999996E-5     -8.476527241457768E-34   -1.9198402238680823E-33  -2.1715895846770126E-34  8.7231165094997E-35      -1.1809657559239786E-34  -2.0023951305562146E-35  -3.3504026002492458E-37  4.408521476830414E-38    -1.9067300553018223E-38  -2.2985359392336302E-39  -6.183972788976407E-41
3.4E-5                    3.5261262163781884E-33   1.569285462915053E-33    -8.812745084482919E-34   -2.8958523260243073E-34  3.8732182187748206E-35   -7.137750619749985E-35   -4.100049068803636E-36   -1.6294595987512816E-37  1.146511685870219E-38    1.4585121530799784E-38   2.372302434750146E-40
3.5E-5                    4.4195055450690184E-33   4.971140128240218E-33    -1.3218078797886892E-35  -7.421213732403362E-34   2.848349647930422E-34    3.6536477540549E-35      7.357355491975447E-37    -2.398939905367229E-37   4.709655240892458E-38    5.567423925336346E-39    1.778434343699575E-40
3.6E-5                    -5.325118051079289E-33   3.1608477713440854E-34   1.5910459555235238E-33   4.261297642408689E-34    -7.470265574238071E-35   1.7905920079131222E-34   1.3689039323618442E-35   7.720376763408895E-37    -3.0822004832578455E-38  -4.6933061856801364E-38  -6.9186514133564945E-40
3.7E-5                    -1.4498938241198146E-32  -9.319034021657958E-33   8.599564190519283E-34    2.695903330244836E-33    -6.312060931185168E-34   -3.8546769139023746E-35  5.202514379247557E-37    1.0307657690827018E-36   -1.129396358634691E-37   -1.42924965995434E-38    -4.925047016104581E-40
3.7999999999999995E-5     7.147881246066433E-35    -7.912845843727272E-33   -2.103528191686469E-33   5.257227911447434E-34    1.0608936215938423E-34   -4.1316882394456384E-34  -4.0235497265654525E-35  -2.5114813218431143E-36  6.816111372428462E-38    1.4083642103273332E-37   1.8426668327076974E-39
3.9E-5                    3.194439177071386E-32    1.0393094187729437E-32   -2.478837141180983E-33   -6.678766177244786E-33   1.3120445561497803E-33   -4.849576797013283E-35   -1.2946801731895816E-35  -3.787748790182884E-36   2.4978230349820826E-37   4.404110923589141E-38    1.2803802422911587E-39
3.9999999999999996E-5     2.9128952597398283E-32   2.2404497284319792E-32   1.5961518401531737E-33   -5.156417539869645E-33   -5.439983248002076E-35   8.568687171386147E-34    1.029389439658729E-34    6.56589529016081E-36     -8.103474037394444E-38   -3.910951414834679E-37   -4.528504774029141E-39
4.1E-5                    -3.781272005374164E-32   1.1866790505893347E-33   4.3440923483220506E-33   1.1745453476063542E-32   -2.5972067089921797E-33  4.232626734381813E-34    6.891044352019457E-35    1.2375284430882707E-35   -3.8092728996105464E-37  -1.560482722578648E-37   -3.0607209217013975E-39
4.2E-5                    -9.463183358512299E-32   -3.4162056785169324E-32  6.926066609990102E-34    1.7058937800966618E-32   -3.909399980061023E-34   -1.540454576691798E-33   -2.2327058183036343E-34  -1.3862524192882457E-35  -3.590937439133624E-38   9.90918397442767E-37     1.0509487968790308E-38
4.2999999999999995E-5     -2.285192377827406E-32   -2.862029577221226E-32   -5.2116313186855856E-33  -1.3050426576603732E-32  4.796859810056183E-33    -1.4858760426040996E-33  -2.4917387492856834E-34  -3.6314175979326774E-35  -1.950868057631085E-37   5.424071316677936E-37    6.792417015341291E-39
4.4E-5                    1.5015741756525361E-31   2.2035371249477156E-32   -5.112878718224435E-33   -3.729593278555721E-32   2.094187066952864E-33    2.2313092066380667E-33   3.902441248523068E-34    2.0629525463509206E-35   -1.6215913313315099E-37  -2.256732595196692E-36   -2.368177025731154E-38
4.4999999999999996E-5     1.9614310864730931E-31   4.633085217422426E-32    3.389517641271256E-33    2.2637287738056632E-33   -7.687559550990802E-33   3.80234378169729E-33     7.027535058990739E-34    9.411906986892619E-35    3.677448703252467E-36    -1.6711729194532014E-36  -1.4976889147258458E-38
4.6E-5                    -4.758636395708971E-32   1.4216234177624165E-32   1.236966957522081E-32    5.912139799419908E-32    -6.443949620903249E-33   -2.062718926965376E-33   -4.777833518913208E-34   -5.0924204066091734E-36  4.4559396093420235E-36   4.579889068146773E-36    5.212950971322226E-38
4.7E-5                    -3.6804535794169198E-31  -5.22411348923841E-33    5.31333344770512E-33     2.535948415319494E-32    9.346033883343293E-33    -7.691698095827451E-33   -1.6139716360154813E-33  -2.0741757880858765E-34  -1.2856787114848406E-35  4.4263329496178594E-36   3.615674434607501E-38
4.8E-5                    -3.220660892233851E-31   1.2558998589661197E-34   -2.2434641177089517E-32  -6.826133578191486E-32   1.3766146002072176E-32   -7.653431596891276E-34   1.2164544696312747E-34   -9.526249246974229E-35   -2.57630416115389E-35    -8.334432203133141E-36   -1.0720648164522733E-37
4.9E-5                    1.9184405377592908E-31   -7.500371492601345E-32   -3.319061849101041E-32   -5.96355365354296E-32    -5.9683567390851177E-33  1.217801835532543E-32    3.042012822669524E-33    3.646528922119489E-34    2.2544028433193065E-35   -1.0165125781533971E-35  -9.42943319806446E-38
4.9999999999999996E-5     6.625291955815308E-31    -1.745031403721148E-31   2.131529660159829E-32    5.901571996262828E-32    -2.010298823585978E-32   8.490897404569891E-33    1.3718973762901505E-33   3.914931444135723E-34    8.909927931483232E-35    1.4008142721772343E-35   1.8516734270884448E-37
5.1E-5                    4.898188123118522E-31    -2.4103523955633365E-33  9.44459666920487E-32     7.851595194289076E-32    -4.2448232326494066E-33  -1.3627437096097496E-32  -4.5550874514500686E-33  -4.406676722199715E-34   9.596564145515856E-37    2.101226356287516E-35    2.257513226728215E-37
5.2E-5                    -2.705686535772726E-31   4.134313409158305E-31    4.356695401257581E-32    -5.986556272924052E-32   1.6592073828309382E-32   -2.1537752266101744E-32  -4.891606794874673E-33   -9.716498948380259E-34   -2.149807986352168E-34   -2.2753391005504874E-35  -2.1235204436534557E-37
5.3E-5                    -9.154753875358417E-31   4.347646320673723E-31    -1.5031051553425915E-31  -9.468030360485633E-32   1.3736098661978808E-32   5.7359298029839505E-33   4.6567310394396104E-33   1.2346902430899246E-34   -1.3870454768070436E-34  -4.155030244123067E-35   -3.8833915777468545E-37
5.4E-5                    -8.444731548184345E-31   -2.6822889956284685E-31  -2.338621956316153E-31   1.098564604765751E-31    2.425496844251635E-33    3.4724150529114453E-32   1.074501926966259E-32    1.6926593783809857E-33   3.721603561367854E-34    3.6131355715147337E-35   -7.219974998496734E-40
5.4999999999999995E-5     -7.519977646588842E-32   -8.826971222985157E-31   3.1290052184865404E-32   2.1363310753070737E-31   -3.8723057255448834E-33  1.6532024997616654E-32   -4.126304504572127E-34   9.935556148977945E-34    5.003813016503743E-34    8.280873710466853E-35    1.4023601230601163E-37
5.6E-5                    9.355772878181671E-31    -4.75763632463027E-31    4.303868243235249E-31    -1.1209930933628367E-31  -2.541872176876033E-32   -3.527750322100877E-32   -1.6760547296065742E-32  -1.9204450993517622E-33  -4.286105114490596E-34   -5.132852216321076E-35   5.0997950428249505E-37
5.6999999999999996E-5     1.5877568254008985E-30   4.869175527800482E-31    4.213272941719172E-31    -5.10887012408856E-31    -4.263332745048218E-32   -4.865485680971077E-32   -1.1247659398693614E-32  -2.9869679391567973E-33  -1.1563197766579152E-33  -1.6564437654756843E-34  1.9165272700416866E-36
5.8E-5                    1.2302276196940749E-30   8.442410636040149E-31    -1.7288687571102102E-31  -2.6460117217663313E-31  1.653155875131221E-32    8.363165586950933E-33    1.607058415980353E-32    5.3886335994313184E-34   1.5024506558055197E-34   4.868666331683682E-35    -2.1797222382783055E-38
5.9E-5                    -3.967016147568169E-31   5.811085342475068E-31    -8.149849301372243E-31   6.201137846247212E-31    1.189540253658664E-31    6.957398719285801E-32    2.846988147913519E-32    4.9251176978172336E-33   2.0737308629570744E-33   3.1522564428035997E-34   -8.177458514647303E-36
5.9999999999999995E-5     -2.40894837123051E-30    4.040878517872416E-31    -7.686492104249068E-31   1.1019556377350954E-30   7.875613786040524E-32    4.737148614866758E-32    9.930863255903725E-34    3.3584624789689284E-33   7.890173132932638E-34    2.4502800733925896E-35   -6.902291508166717E-36
6.1E-5                    -3.0456265451054994E-30  -8.298145894141895E-32   1.3227372646429595E-31   2.6788693246278666E-31   -1.5851946589138458E-31  -4.6920605134819E-32     -3.7464065545751546E-32  -4.464438047160459E-33   -3.042697163547348E-33   -5.394872622602232E-34   1.9317962652899783E-35
6.2E-5                    -1.3626613101432152E-30  -1.6052156767606818E-30  1.2473390239022176E-30   -1.324766232902706E-30   -2.9299033726613237E-31  -1.0118001425648828E-31  -3.467604372514379E-32   -8.945497215135916E-33   -2.8435901372342905E-33  -2.643611793239656E-34   3.303077713012233E-35
6.3E-5                    1.6537273524575805E-30   -2.777173468654301E-30   1.531115320601913E-30    -1.9378617172595655E-30  -6.011191560895732E-33   -3.5265693352480764E-32  1.5629146159181703E-32   -1.2819886124849561E-33  3.3600217368261614E-33   7.889959151213956E-34    -2.566674999230063E-35
6.4E-5                    4.143606647104584E-30    -1.121287441800142E-30   3.6684780542270434E-31   -5.381377627035234E-31   4.842158114413172E-31    9.000431828839957E-32    5.846661361826323E-32    1.2006813260549804E-32   6.30100249284367E-33     8.073530680720608E-34    -9.644269572734018E-35
6.5E-5                    4.892768832421002E-30    2.934888376655996E-30    -1.5842958264360737E-30  1.8522244780780615E-30   5.172549664306918E-31    1.2979270094693024E-31   4.0248194357091016E-32   1.2478243910580617E-32   -1.4135712723367599E-33  -8.815288846519494E-34   -7.42060398928993E-36
6.599999999999999E-5      3.1620657971933574E-30   5.523102294361231E-30    -2.539996661113287E-30   3.011112372746186E-30    -1.8467424981364844E-31  2.5056958602799947E-32   -2.73016437392211E-32    -5.7381222412140094E-33  -9.988919784127434E-33   -1.774762018253045E-33   2.0299171135896807E-34
6.7E-5                    -1.6417998790210362E-30  3.6265219316100306E-30   -1.2715715464685116E-30  1.631518956672148E-30    -9.829906952098275E-31   -1.1765009652888788E-31  -7.781356548828534E-32   -2.1811546605500507E-32  -4.319646062796186E-33   3.7736468876269807E-34   1.5000620469272855E-34
6.8E-5                    -8.154391205381862E-30   -1.811197860520224E-30   1.3129544469512487E-30   -1.5073047319910079E-30  -8.900395910755657E-31   -1.4760372977983943E-31  -5.917550302511307E-32   -1.2032382357985995E-32  1.0171610514713188E-32   3.0262560336886086E-33   -3.051711766978545E-34
6.9E-5                    -1.1656575454852226E-29  -7.102340724105191E-30   2.8554800511523063E-30   -4.066126641783466E-30   2.9404127287120687E-31   -4.7707407308335877E-32  1.772259222784881E-32    1.5443495988859246E-32   1.181978244632403E-32    1.4304904050466324E-33   -4.883556211128181E-34
7.0E-5                    -7.359245472335746E-30   -8.336561686877488E-30   1.961321095156869E-30    -3.7132955318635396E-30  1.5716112435989553E-30   6.743683139216253E-32    9.382954327377346E-32    2.7745163555636395E-32   -3.608712369133653E-33   -3.630276956542831E-33   2.4782562767657015E-34
7.099999999999999E-5      3.998430838653013E-30    -3.507073958931276E-30   -4.2602269418366885E-31  -8.226951466868274E-32   1.6228897323564514E-30   1.2350369202946128E-31   1.102118871254422E-31    1.0485844473160511E-32   -1.415393351367498E-32   -4.920465569833673E-33   1.0424527178841652E-33
7.2E-5                    1.5481188724324174E-29   5.137368972573496E-30    -1.9880315751157967E-30  4.17593480335089E-30     1.342922589812085E-31    1.5715664451542274E-31   4.13861846659024E-32     -1.6371980279359186E-32  -5.534116052819278E-33   1.5477966142770236E-33   2.5022547845781576E-34
7.3E-5                    1.94742399971966E-29     1.1320004536476642E-29   -1.1798720756847152E-30  5.245025049224296E-30    -1.792758583048131E-30   1.6842408923207678E-31   -9.111019238897383E-32   -2.901812280011597E-32   7.415555639544378E-33    8.679094174596715E-33    -1.608089106114834E-33
7.4E-5                    1.2854661310492377E-29   1.0043600487773153E-29   1.1054793538845256E-30   2.10064779519061E-30     -2.6151558972738933E-30  2.5275858247649725E-32   -2.0811404284973317E-31  -2.2327193516819005E-32  6.972570866766925E-33    5.223768446144384E-33    -1.4825121331192906E-33
7.5E-5                    -2.2217832559359445E-30  2.559121546597743E-30    1.854125488424623E-30    -2.098707292739563E-30   -1.6946716564136884E-30  -3.326015984403584E-31   -1.9114538529215559E-31  1.8090251864035454E-33   -3.572983247944969E-34   -8.337487061409609E-33   1.5924953120466133E-33
7.599999999999999E-5      -1.9370440242259235E-29  -5.579037841984962E-30   -1.0325695893092804E-30  -3.5704932651111514E-30  3.810032129674707E-31    -6.436784657772104E-31   2.4041501356730644E-32   3.651566992481281E-32    -5.5280271623948425E-34  -1.5487047574247535E-32  3.404188543421518E-33
7.7E-5                    -2.946941454700012E-29   -1.0062256130282977E-29  -5.458141865931375E-30   -2.0808306382344758E-30  2.6017140318016943E-30   -4.816448516800101E-31   3.270108273425489E-31    5.168980629964894E-32    3.081094114327705E-33    -1.8240169633931234E-33  -7.184615138826841E-35
7.8E-5                    -2.5177640171840766E-29  -9.843768577483242E-30   -6.249769448970415E-30   -5.5014764671405645E-31  4.1491123339289206E-30   2.5183876720909693E-31   4.478846920458825E-31    1.529315268754202E-32    1.1059848518576246E-33   2.1661118788609924E-32   -5.0856482638685694E-33
7.9E-5                    -7.246818487800684E-30   -6.205112392765215E-30   -7.507004253444678E-31   -1.2344694136343195E-30  4.0779621040926646E-30   1.0971709555370621E-30   1.8890293177340328E-31   -4.7660392113655967E-32  -3.767951479925698E-33   2.3193256225206612E-32   -3.551894559027395E-33
7.999999999999999E-5      1.4284473826356878E-29   -2.3707431200757517E-30  7.6528708900321E-30      -3.168963919826907E-30   1.2424115972261313E-30   1.3808287691579012E-30   -3.238911623104737E-31   -6.476698910921565E-32   -7.4317554152995E-33     -1.0547651234985526E-32  4.4625578737668116E-33
8.099999999999999E-5      2.680114046519934E-29    -1.5737916932261774E-30  1.263005328849336E-29    -2.8575250172238835E-30  -4.2789042046767915E-30  7.4637896927174275E-31   -6.890943658329197E-31   -1.7159269197310883E-32  -1.2646558645922032E-32  -4.474975810902957E-32   8.155405113578243E-33
8.2E-5                    2.3754086013913588E-29   -2.8931804053933805E-30  1.0540502039941317E-29   2.4661738898940918E-30   -9.65217897999559E-30    -6.261274346181171E-31   -5.960169643339508E-31   2.202860390416378E-32    -1.05365759025403E-32    -2.755943704381542E-32   5.45277722095915E-34
8.3E-5                    8.393264484894388E-30    -1.5676093657591628E-30  2.205679977208531E-30    1.0826231544009552E-29   -1.0460841159698831E-29  -2.114891127092764E-30   -1.031434063491153E-31   2.28800318841372E-33     1.5520665002888501E-32   3.873446076821132E-32    -9.797739878523564E-33
8.4E-5                    -8.791677029736557E-30   4.269033048762465E-30    -9.040966414992893E-30   1.499238538382719E-29    -4.396334980522372E-30   -2.8402085278347917E-30  4.969955261283855E-31    -6.336246414157974E-33   4.651664525714869E-32    7.843698153433256E-32    -8.878758332518666E-33
8.499999999999999E-5      -1.7141742072684094E-29  1.0479313991287549E-29   -1.8886521693564243E-29  8.521510247578157E-30    6.409096953731884E-30    -1.9968447409358713E-30  9.771487192743397E-31    7.972591904932227E-32    3.121818748265471E-32    2.381697539791595E-32    3.6308588670645336E-33
8.599999999999999E-5      -1.403421079288643E-29   1.289858595927808E-29    -2.2645735298484552E-29  -6.995645359152807E-30   1.682812510942521E-29    5.476387895246711E-31    1.1665267352774493E-30   1.787727666513561E-31    -3.1549936187208933E-32  -8.610850071904804E-32   1.3432693936636445E-32
8.7E-5                    -8.186245966857103E-30   1.159721870757868E-29    -1.7335358901110202E-29  -2.2624079042040142E-29  2.162179195501497E-29    3.7696089742825496E-30   7.4709056928034E-31      9.439720861462644E-32    -6.501630222790208E-32   -1.2304258937727767E-31  9.406668716001873E-33
8.8E-5                    -1.398169530498129E-29   4.760574701422241E-30    -4.4910337125130796E-30  -2.983371405341809E-29   1.6810617386241274E-29   5.7760752372683035E-30   -5.336849047308733E-31   -2.078516264326645E-31   -2.5074794991742875E-32  -1.2859568291503128E-32  -4.68782606786459E-33
8.9E-5                    -4.123409563293068E-29   -1.6923403852404907E-29  9.809231505098084E-30    -2.5149169624771123E-29  7.201861746759822E-31    4.913601606122323E-30    -2.22028133521743E-30    -4.625634513087013E-31   1.709798060109948E-32    1.5118395548079644E-31   -1.6448961470534918E-32
8.999999999999999E-5      -8.951338307999402E-29   -6.283235107855088E-29   1.836199142317904E-29    -8.582633822588555E-30   -2.31611135720367E-29    9.027314134497382E-31    -3.0206882387374446E-30  -3.4061338818322975E-31  -9.044732772872797E-33   1.7972781214840546E-31   -1.5698017635314862E-32
9.099999999999999E-5      -1.5054326026581505E-28  -1.3186695977173867E-28  1.6316950556895165E-29   1.6760153263643895E-29   -4.4278770209570584E-29  -4.834631498699197E-30   -1.797819176684565E-30   1.7646765014590503E-31   -2.663503976125629E-32   -6.505657085357207E-34   5.78569798582096E-34
9.2E-5                    -2.14291366792311E-28    -2.160364219812011E-28   2.070123723697387E-30    4.146917576426709E-29    -4.908954585949908E-29   -9.755728493033707E-30   1.1923118953032615E-30   7.075606118877008E-31    7.991923631871757E-32    -2.25751633633834E-31    2.403601236685239E-32
9.3E-5                    -2.7328907009906474E-28  -3.1138578728186075E-28  -2.3600422451323447E-29  5.080529198453377E-29    -2.999613399382278E-29   -1.1260276879874847E-29  4.223237117376091E-30    7.789057859476461E-31    2.1704662055111506E-31   -2.381552589330143E-31   3.2925381138040613E-32
9.4E-5                    -3.2364224389791774E-28  -4.155085817374402E-28   -5.855834926951687E-29   3.320792406228876E-29    8.619115213113046E-30    -7.874916218913257E-30   5.309586292974601E-30    2.355459874911219E-31    1.2559705814537784E-31   1.7579278336638897E-32   7.416417697618669E-33
9.499999999999999E-5      -3.6434828529070714E-28  -5.152661038504493E-28   -1.007484982441435E-28   -1.1758444496593348E-29  5.225305908599801E-29    -2.4083874955994153E-31  3.504788966590952E-30    -6.009246167837003E-31   -2.3566829393640676E-31  2.864562805249331E-31    -4.0926431431755516E-32
9.6E-5                    -3.9683713502956185E-28  -5.899580533393268E-28   -1.50038313997879E-28    -7.316697733043714E-29   8.287141161354214E-29    8.705949168983994E-30    -6.40570880111994E-31    -1.1445988291116076E-30  -5.0142201264132885E-31  2.6084407872205114E-31   -6.322139173373123E-32
9.7E-5                    -4.247082001644263E-28   -6.31958795857659E-28    -2.0777842719435325E-28  -1.3463710661979973E-28  8.49805739685749E-29     1.4893288138627727E-29   -5.3414187346826396E-30  -9.652124215377615E-31   -2.779627641217432E-31   -5.175877094932721E-32   -1.8160752807279932E-32