% Model:              Untitled.mph
% Version:            COMSOL 6.0.0.405
% Date:               Jul 15 2025, 13:07
% Dimension:          1
% Nodes:              401
% Expressions:        11
% Description:        Point graph
% Time (s)                Displacement field, Y component Displacement field, Y component Displacement field, Y component Displacement field, Y component Displacement field, Y component Displacement field, Y component Displacement field, Y component Displacement field, Y component Displacement field, Y component Displacement field, Y component Displacement field, Y component
0                         -3.49942633309952E-33    -3.7961593347391945E-32  -8.307624103032609E-32   -1.399124266114035E-31   4.3240694007640844E-32   -6.540000577545134E-32   -7.763010779164172E-32   -9.0489912116696E-32     7.315031229232382E-35    5.5242907183150686E-34   1.310298588644985E-32
5.0E-7                    3.7593210138005945E-24   -1.9871109271221872E-23  -1.1856009988248137E-23  -1.333368742063782E-22   -1.423693165544838E-24   9.855854879794286E-24    1.1931264819062104E-23   1.2663681127815634E-23   3.630910256479641E-27    -6.455820407657356E-26   1.5180686110040787E-23
1.0E-6                    1.7652434671353916E-23   -6.272925667226968E-23   1.5099872039942397E-22   -2.2050868150410893E-22  1.3816663005573065E-23   -1.2132722463181253E-23  -1.3962354854981528E-23  2.856180448696855E-23    -1.3702623046736345E-25  -3.5509835542665116E-25  -1.0493311110265229E-22
1.5E-6                    -2.0504727368002478E-22  -1.3290501824303937E-22  -4.2238353292487284E-22  2.818275130085218E-21    1.3293169610493476E-22   -2.749082306385191E-23   -5.789046366227515E-23   -3.8064713151543974E-22  8.641337130040615E-25    3.285639704815527E-24    1.6699550301743416E-22
2.0E-6                    -1.8076621926247132E-23  2.097344287303033E-22    -1.5900326676738795E-22  4.4992133877887646E-21   -1.6339366307717522E-21  1.1082000053558029E-22   3.192131109173172E-23    1.290862357551009E-21    -1.0014545292015176E-24  4.369977060508072E-24    6.444168388858303E-22
2.4999999999999998E-6     1.4725569221640637E-21   1.1747894854027024E-23   -2.244628968138155E-21   -2.1788998983247653E-20  2.269595132799782E-21    -3.229410728167634E-22   8.269475575381936E-22    -7.693726282223847E-22   -4.038487652899823E-24   -1.7174997360439134E-23  6.032132079665683E-22
3.0E-6                    4.077811509250016E-21    1.3078418199401238E-20   1.669585994705495E-20    -5.731980398605409E-20   9.611766782912153E-21    1.4065451229828656E-21   -3.891887121558734E-21   -7.72462666124677E-21    -1.132033266333802E-23   -1.816597165063108E-22   -1.1371428926972301E-20
3.5E-6                    -1.0603519997046744E-20  1.416789070982902E-20    2.2883340459654507E-20   8.552887590911569E-20    -1.3157454686613966E-20  -2.3518302925994784E-21  -1.0852083665531623E-20  4.632122622746191E-21    3.7515772496438244E-23   8.960818283038822E-23    -2.13101619958306E-20
4.0E-6                    -5.294046888846041E-20   -8.334790705364393E-20   -1.4184105903367669E-19  4.883172203448406E-19    -8.326943754253775E-20   -9.032648216391095E-21   1.988167931095498E-20    3.665728509832204E-20    2.2332201141461995E-22   1.7766865881248976E-21   8.908628417196917E-20
4.5E-6                    3.84089502355569E-20     -1.8340548181620432E-19  -2.506526248832365E-19   -8.381475888017648E-20   4.9858946507576607E-20   -6.259419431323404E-21   1.0520155005994987E-19   -1.2664378950769909E-20  -1.0454547447477218E-22  1.3646443510064018E-21   2.4714091603937555E-19
4.9999999999999996E-6     3.8024874019033264E-19   1.0391234286039955E-19   6.264575371414017E-19    -2.7474035246866197E-18  6.7438487264546775E-19   4.1414785538813306E-20   -1.5968374727162286E-19  -3.272141300869417E-19   -1.911852104589997E-21   -1.0117570610727161E-20  -2.6997211453261595E-19
5.5E-6                    1.3197562009977236E-19   9.398640309728444E-19    2.2573232580929527E-18   -1.821391761433538E-18   5.026274211269078E-21    -1.3043204844880297E-20  -1.231974044465346E-18   -3.320957054993304E-19   -1.6531516593327468E-21  -2.277352856768483E-20   -1.5855374706147277E-18
6.0E-6                    -1.750484324377106E-18   1.0155550757036558E-18   -4.699881825762805E-19   1.023382055734169E-17    -4.138817398242248E-18   -8.232466797334264E-19   -5.529388241122516E-19   1.465026589305818E-18    9.488762433624125E-21    2.6222067913451172E-20   -6.852453103327322E-19
6.5E-6                    -2.4457913223634613E-18  -2.570797436443196E-18   -1.2675548947332117E-17  1.5434177262909986E-17   -3.329156054703968E-18   -1.7372526246519115E-18  4.1799255171408815E-18   9.679126100475588E-19    2.1343322946822747E-20   1.5862970156787587E-19   5.543329251461772E-18
7.0E-6                    4.3387120614261714E-18   -8.501839679249408E-18   -1.592991888709471E-17   -2.277145682620565E-17   1.5764886255326926E-17   -1.163202560154014E-19   -1.1674742347333843E-18  -1.1650591004956855E-17  -1.9628732792281126E-20  9.233341994038739E-20    9.581961003921165E-18
7.499999999999999E-6      1.4164443899937467E-17   -2.502414318068905E-18   3.2270963042066447E-17   -7.196908958100043E-17   2.4819537902108687E-17   -1.8087209074071779E-19  -3.66854860544549E-17    -1.9051252992477163E-17  -1.241264422479245E-19   -5.863285149849459E-19   -5.935166479416868E-18
8.0E-6                    1.851272320753068E-18    2.997040229050807E-17    1.0402831274769412E-16   -1.055362066155949E-17   -4.9685367235061665E-17  -1.962575232250835E-17   -6.353187299213221E-17   1.9105278724037805E-17   -7.762757941718242E-20   -1.1882763297946793E-18  -3.765642941413529E-17
8.5E-6                    -4.433829742703695E-17   5.24381396054592E-17     1.550005476149684E-17    1.6298018779035574E-16   -1.6774391361978904E-16  -6.454628843968364E-17   -4.847664490940191E-18   2.3697605670167354E-17   3.9428266649742424E-19   6.4034522480922E-19      -3.535471677468346E-17
9.0E-6                    -6.311904075389772E-17   -3.719982768057435E-17   -3.3981102889526307E-16  1.7295149251859297E-16   -4.9604287980419144E-17  -1.0014017273985803E-16  -3.809868554526856E-17   -2.2390206433740893E-16  7.94780014974476E-19     5.198884676544885E-18    5.2798355164290264E-17
9.499999999999999E-6      4.499756653576502E-17    -2.3927775301926126E-16  -5.288076710533709E-16   -2.1067329267904387E-16  3.985034965591456E-16    -1.5901979375138293E-16  -7.737370408519634E-16   -6.256715607031025E-16   -3.4798560099013255E-19  5.040949486804208E-18    1.7408209080223841E-16
9.999999999999999E-6      2.339450574974823E-16    -2.2349947293795785E-16  1.9600842772421812E-16   -7.143403138706904E-16   2.9795840967226153E-16   -5.977296876029301E-16   -2.472616677949029E-15   -6.320251797179789E-16   -2.9778809429616667E-18  -9.640202495453896E-18   1.3357191477889143E-16
1.05E-5                   2.0375324282658084E-16   3.9713095858439964E-16   1.5079503192019007E-15   -8.346346369250525E-16   -1.6728698069451278E-15  -1.9935502093482027E-15  -4.268634124315995E-15   -7.463537065499958E-16   -2.6919323444995903E-18  -2.859963688520145E-17   -2.404943049996815E-16
1.1E-5                    -3.1798037875462763E-16  1.144841370570464E-15    1.1835967676654568E-15   -7.585751043667199E-16   -4.733163626349648E-15   -4.500083287102391E-15   -6.939919550776535E-15   -3.979812679027519E-15   4.822278901968545E-18    -1.183148904364624E-17   -7.40189043189959E-16
1.15E-5                   -1.0202381451722023E-15  4.2646957431008625E-16   -2.7532765268935086E-15  -1.5381379549856557E-15  -5.428279075042058E-15   -8.59674039066016E-15    -1.9049619688930995E-14  -1.34063174555945E-14    1.3174558243084594E-17   6.269846559204383E-17    -5.599219466952919E-16
1.2E-5                    -8.356426768749009E-16   -2.5056547888158006E-15  -8.26568864148044E-15    -4.1111226877398E-15     -3.99718368779027E-15    -1.9112686561958558E-14  -5.742766038912443E-14   -2.896881113473016E-14   6.408961738814267E-18    1.2216658772897893E-16   1.0634390864881697E-15
1.2499999999999999E-5     1.1453419462867464E-15   -4.776496626110324E-15   -9.447288154314587E-15   -1.0394811360477236E-14  -1.2998316072470219E-14  -4.8191162345456327E-14  -1.3668356743752167E-13  -5.464594801526051E-14   -2.030796476033723E-17   2.2747738418676448E-17   3.1232443920092313E-15
1.3E-5                    3.694592073393506E-15    -1.1403050693359825E-15  -3.69625808526231E-15    -2.824334042181277E-14   -5.426313513336251E-14   -1.113087469461841E-13   -2.6778878499628026E-13  -1.1512226140209317E-13  -4.554599999151762E-17   -2.552994105239737E-16   2.1247623844711407E-15
1.35E-5                   2.442232129827463E-15    8.034797625965875E-15    -6.262197552045621E-16   -7.020368091918907E-14   -1.407982592604648E-13   -2.2833136618807455E-13  -5.031112924865601E-13   -2.6170812945229796E-13  -2.8887096032561435E-17  -4.17440047064963E-16    -4.1225741660475405E-15
1.4E-5                    -6.218638715727771E-15   9.775188577790541E-15    -2.2336017479519514E-14  -1.4067379594339212E-13  -2.6921022674464266E-13  -4.541246580662169E-13   -1.0220358021054054E-12  -5.651229103597594E-13   7.121160991846593E-17    1.2227171559197472E-17   -1.000345397796167E-14
1.45E-5                   -1.6931079465374053E-14  -1.1490645644130074E-14  -9.1344563211681E-14     -2.501280746412511E-13   -4.64908144866919E-13    -9.22814888057754E-13    -2.154834095590712E-12   -1.1318765166374339E-12  2.3035484646842794E-16   1.1212669190044028E-15   -3.693466357700694E-15
1.4999999999999999E-5     -1.512868986194872E-14   -4.6795523273463774E-14  -2.1850350609705735E-13  -4.926390073176399E-13   -8.781803805067803E-13   -1.8423733857646226E-12  -4.2515134215062204E-12  -2.161210463167841E-12   2.275544893419724E-16    1.9864255148693696E-15   1.7039581663750995E-14
1.55E-5                   4.062726501588537E-15    -5.599364128012202E-14   -4.1000132636169037E-13  -1.0863117874288884E-12  -1.8185075331227558E-12  -3.4547513837786687E-12  -7.56076055680273E-12    -4.0031887053704795E-12  -2.36168662964556E-16    1.0045361029319389E-15   3.267492340775945E-14
1.6E-5                    1.5492854105768482E-14   -2.017737037837005E-14   -6.947862924129371E-13   -2.2275459947651655E-12  -3.597703954957613E-12   -6.1112424596041585E-12  -1.2442864769831853E-11  -7.192449593386004E-12   -8.448160799280754E-16   -1.8911300395724993E-15  2.012697976458084E-14
1.6499999999999998E-5     -2.111234500331163E-14   -1.0811195463671606E-14  -1.1600691453613248E-12  -3.944385955375468E-12   -6.3311908402529995E-12  -1.0448475441929726E-11  -1.96498862218884E-11    -1.2420677659136103E-11  -2.4109430469355017E-16  -2.56377633181168E-15    -1.0795062379095009E-14
1.7E-5                    -1.1764487199214908E-13  -1.6071708245095192E-13  -2.0119184297144283E-12  -6.404928267861746E-12   -1.0123105345660094E-11  -1.7207353217786084E-11  -2.9610811060871883E-11  -2.023871717387645E-11   2.4864719959879477E-15   5.736083085579353E-15    -1.5105508900433188E-14
1.75E-5                   -2.493564408337405E-13   -5.121777887595084E-13   -3.6766881298848964E-12  -1.0495080632372642E-11  -1.5585757893769474E-11  -2.636067108343428E-11   -4.0643700485726167E-11  -3.0363380596331815E-11  5.31695229853542E-15     2.452546180085343E-14    4.189822293826047E-14
1.8E-5                    -4.0376637500467226E-13  -9.219296763885237E-13   -6.805857020969024E-12   -1.7510079191018024E-11  -2.365265525294009E-11   -3.632654881501909E-11   -4.865179383375452E-11   -4.1225606460456886E-11  4.4661688087518966E-15   4.486874890793294E-14    1.5691532003607542E-13
1.85E-5                   -6.099243376731678E-13   -1.2349995200058896E-12  -1.1915531365206647E-11  -2.746123051989811E-11   -3.397250183114223E-11   -4.464502049285606E-11   -5.0663552011376665E-11  -5.078856324072409E-11   1.0047227333321814E-15   5.797117753661145E-14    3.216259978218821E-13
1.8999999999999998E-5     -9.112761199571902E-13   -1.6512539982403543E-12  -1.8716711975560212E-11  -3.772916525552695E-11   -4.3483069519658134E-11  -4.990074537186019E-11   -4.912710592462936E-11   -5.8190998297488543E-11  5.2729368518969366E-15   7.745844806029031E-14    5.471285534278553E-13
1.95E-5                   -1.4005852679593065E-12  -2.8735833761903604E-12  -2.5850835256497735E-11  -4.432108920305294E-11   -4.79351170207356E-11    -5.2543291023466074E-11  -5.0193279018413586E-11  -6.392466595391237E-11   2.9719193905363984E-14   1.4770640099196406E-13   8.21256572100942E-13
1.9999999999999998E-5     -2.376521907184232E-12   -5.6856701652236776E-12  -3.170001702274555E-11   -4.507659324420944E-11   -4.597738752975416E-11   -5.3250788485318646E-11  -5.567046500624805E-11   -6.765638376846921E-11   7.52467370690753E-14     3.2264332199460755E-13   1.1070070212239763E-12
2.05E-5                   -4.363543439683714E-12   -1.0166524269238327E-11  -3.566027036222687E-11   -4.1345562537295744E-11  -4.104083124281373E-11   -5.1069125320676523E-11  -5.843805075926369E-11   -6.666168178936016E-11   1.3020657294557982E-13   6.358980612090629E-13    1.49978187879667E-12
2.1E-5                    -7.70394339171649E-12    -1.5330163639528943E-11  -3.8214620274865094E-11  -3.6101495742211115E-11  -3.759680887951519E-11   -4.427900395227413E-11   -4.881837422591887E-11   -5.792645131435202E-11   1.9269018770075012E-13   1.0974290700548845E-12   2.3750751153537966E-12
2.1499999999999997E-5     -1.1982160281420527E-11  -1.9791171073198826E-11  -3.928035404752738E-11   -3.056430095618511E-11   -3.541731466810615E-11   -3.281695043725426E-11   -2.4865877167748563E-11  -4.154966407042376E-11   3.0079042932207814E-13   1.7273020460432212E-12   4.202964778924487E-12
2.2E-5                    -1.5964463081974245E-11  -2.2908301794690612E-11  -3.679006442766146E-11   -2.302555220514999E-11   -2.8988274567545573E-11  -1.8125410448729856E-11  6.743223071459121E-12    -2.012814450389743E-11   5.391477078743971E-13    2.607303027817432E-12    7.056401374388151E-12
2.2499999999999998E-5     -1.8230952626456476E-11  -2.495408745626925E-11   -2.7852276141071115E-11  -1.0971129876374156E-11  -1.3303775144711232E-11  1.754953817508379E-13    4.020551678088063E-11    5.7751787765469365E-12   1.003477897282043E-12    3.903228031773867E-12    1.0292568652333231E-11
2.3E-5                    -1.779477692312773E-11   -2.5785002466747678E-11  -1.1800938532154685E-11  6.109942613596712E-12    1.0969577874090566E-11   2.6078966944036278E-11   7.789585049693654E-11    3.969531139525293E-11    1.7466060632700921E-12   5.775397262871197E-12    1.2777303496164747E-11
2.35E-5                   -1.4060143173764925E-11  -2.36637673008885E-11    8.470261137567596E-12    2.6759495502519582E-11   3.940823541133833E-11    6.407098398699869E-11    1.2695748380809254E-10   8.563469353980829E-11    2.765621901545251E-12    8.131924800406638E-12    1.3466983643939883E-11
2.4E-5                    -6.4921778792612665E-12  -1.6313603373564286E-11  2.9071516715946917E-11   5.075778886984815E-11    7.036156380943157E-11    1.1467882429602111E-10   1.907844907416803E-10    1.4384363232729853E-10   4.057006648852844E-12    1.0375368277466846E-11   1.1864727473992188E-11
2.45E-5                   5.120042147600987E-12    -3.5509351860177645E-12  4.917871640707446E-11    8.143817483694372E-11    1.0786099615139985E-10   1.7468197634251602E-10   2.656311443492503E-10    2.1166958370026195E-10   5.657973615983584E-12    1.14763418856817E-11     8.06957139529678E-12
2.4999999999999998E-5     1.9751955173587516E-11   1.1808098516166003E-11   7.212718189999076E-11    1.2321510889504203E-10   1.572091851017594E-10    2.415539600872298E-10    3.447869215854544E-10    2.872406680826096E-10    7.542931660018745E-12    1.0525498817783268E-11   2.4819143626579305E-12
2.55E-5                   3.46323556441321E-11     2.650356231424742E-11    1.0232702576716976E-10   1.7649409369902204E-10   2.1844529208356698E-10   3.1547914072616953E-10   4.2477520217532565E-10   3.7010471257248423E-10   9.397820835870374E-12    7.388003136034087E-12    -4.53580318082955E-12
2.6E-5                    4.611619392180716E-11    4.017732796665687E-11    1.4135950672187572E-10   2.3636893936271557E-10   2.8532401550697884E-10   3.95947174062971E-10     5.072682912889503E-10    4.587443227283251E-10    1.0532417229231892E-11   2.8086343978837194E-12   -1.2686216242276151E-11
2.65E-5                   5.167173380803995E-11    5.548744852969564E-11    1.8693441563474805E-10   2.968957366322929E-10    3.5091561875663147E-10   4.784766466626682E-10    5.94868098009202E-10     5.498962155332582E-10    1.0173322791546075E-11   -2.2332808433594644E-12  -2.1416195652096416E-11
2.7E-5                    5.152229565023135E-11    7.484141748435565E-11    2.3473738631869215E-10   3.5518063754840186E-10   4.1346117478144063E-10   5.571824810595511E-10    6.846755299818637E-10    6.407121059434203E-10    8.007751882060022E-12    -7.33392645380416E-12    -2.9788848719735566E-11
2.7499999999999998E-5     4.852706038285713E-11    9.763401664643488E-11    2.807185098420932E-10    4.1037172183133994E-10   4.762184401541623E-10    6.297718729364135E-10    7.663479506747652E-10    7.292233147889793E-10    4.497211808655349E-12    -1.2844347255052534E-11  -3.709524698750385E-11
2.8E-5                    4.627668656814649E-11    1.2086285310826858E-10   3.223801912215299E-10    4.604703822397486E-10    5.4182961712522E-10      6.971365116358618E-10    8.272910176659812E-10    8.112185212141022E-10    5.883873446040594E-13    -1.930094300951175E-11   -4.3773094103592485E-11
2.8499999999999998E-5     4.6957995358682314E-11   1.4179062215350926E-10   3.590876564934007E-10    5.023314492187373E-10    6.070204049958263E-10    7.572370246770359E-10    8.598748728449562E-10    8.782383245915965E-10    -3.030454928914964E-12   -2.6808983621153277E-11  -5.13572805173533E-11
2.9E-5                    5.071900626112109E-11    1.595969591999506E-10    3.91118876507423E-10     5.341248542858392E-10    6.622152205427035E-10    8.011810675258146E-10    8.631513741810008E-10    9.204566426684057E-10    -6.530683199617468E-12   -3.506541518768927E-11   -6.093169797116481E-11
2.95E-5                   5.6728212823289506E-11   1.750192441856883E-10    4.17324522117613E-10     5.553350682489315E-10    6.957603953609602E-10    8.162969527158961E-10    8.375550152699009E-10    9.305714358138115E-10    -1.0856157104234006E-11  -4.384587843475461E-11   -7.139472203099616E-11
2.9999999999999997E-5     6.444706723278265E-11    1.8906093297103429E-10   4.3329868375349835E-10   5.633700204013143E-10    6.988900767974011E-10    7.920528478746958E-10    7.782293533695519E-10    9.030258696677593E-10    -1.696674870571076E-11   -5.316151312544122E-11   -7.953870618717203E-11
3.05E-5                   7.35700627043266E-11     2.01638841118645E-10     4.324923083992178E-10    5.510916072309635E-10    6.674176574867144E-10    7.225743055231948E-10    6.733483641147393E-10    8.304130919060162E-10    -2.5078801416570035E-11  -6.27817455342196E-11    -8.227133970720849E-11
3.1E-5                    8.26138192825962E-11     2.1041699578408894E-10   4.094137938836938E-10    5.085609071742045E-10    5.992568491097571E-10    6.049879204786137E-10    5.086095968528761E-10    7.035197141354613E-10    -3.465748115101494E-11   -7.179973329589409E-11   -7.892946767364462E-11
3.15E-5                   8.772641944434754E-11    2.1068897328024382E-10   3.6117964747338254E-10   4.2758275944530046E-10   4.910606308522326E-10    4.368667707712373E-10    2.73691347401505E-10     5.152213509681579E-10    -4.5180545414169046E-11  -7.896395696970074E-11   -7.134684927485913E-11
3.2E-5                    8.34625101322221E-11     1.9734867610997512E-10   2.859125478416955E-10    3.0525974308794476E-10   3.378965956969894E-10    2.1497765672290042E-10   -3.4525894236143254E-11  2.617294238407582E-10    -5.6776001499076923E-11  -8.34393958790752E-11    -6.167505898308114E-11
3.25E-5                   6.564688889820979E-11    1.680382864815282E-10    1.8085472449072018E-10   1.437544033770852E-10    1.3556663944918534E-10   -6.46999027452972E-11    -4.134439914380909E-10   -6.077356279642149E-11   -6.984412394288939E-11   -8.50074924372463E-11    -5.03012015377304E-11
3.2999999999999996E-5     3.4225181858813186E-11   1.2447519628116718E-10   4.3117407676681244E-11   -5.385599220140794E-11   -1.1806298876161341E-10  -4.0608035444575377E-10  -8.579798982714143E-10   -4.574778759757622E-10   -8.392007570168195E-11   -8.348367357642443E-11   -3.583680701091305E-11
3.35E-5                   -6.528278350234197E-12   7.004771780368948E-11    -1.2807775499930883E-10  -2.882404593367664E-10   -4.235571889809551E-10   -8.111202130875306E-10   -1.3620750283565202E-9   -9.29777581676093E-10    -9.706560935305186E-11   -7.822262340202824E-11   -1.6667204231999567E-11
3.4E-5                    -5.086069207407567E-11   5.61767482461975E-12     -3.3077153822553383E-10  -5.638540859838946E-10   -7.793100468427258E-10   -1.2772570922600684E-9   -1.9180700101244043E-9   -1.469492308866596E-9    -1.0665914210924314E-10  -6.837853815253374E-11   7.940721867615684E-12
3.45E-5                   -9.50127604722962E-11    -7.222315365174398E-11   -5.617852295429787E-10   -8.830054610672626E-10   -1.1792168534206888E-9   -1.7956224368231202E-9   -2.5155165168601364E-9   -2.060558052534773E-9    -1.1095042804318545E-10  -5.34210011003548E-11    3.812886706238673E-11
3.5E-5                    -1.385144408227302E-10   -1.6838409421686157E-10  -8.180792734278702E-10   -1.239716137607809E-9    -1.6125195817451264E-9   -2.351904066212142E-9    -3.140010866478105E-9    -2.6861773010963864E-9   -1.0991786394180872E-10  -3.302852010040761E-11   7.424364840705605E-11
3.5499999999999996E-5     -1.8279029904243847E-10  -2.844513793598357E-10   -1.0962532702597185E-9   -1.620635221722632E-9    -2.067772081115539E-9    -2.929458792830163E-9    -3.771755146997498E-9    -3.3319690414114637E-9   -1.047351731067713E-10   -6.426349046066902E-12   1.1686650918832424E-10
3.6E-5                    -2.287215590811041E-10   -4.1625629388102233E-10  -1.3908242845736245E-9   -2.0122715693777524E-9   -2.5362273682806308E-9   -3.51119793785201E-9     -4.384622818358252E-9    -3.981476112260752E-9    -9.646922892540524E-11   2.7864563484164974E-11   1.659010634696745E-10
3.65E-5                   -2.750357259254086E-10   -5.557789736985448E-10   -1.6927921219225413E-9   -2.405477478332446E-9    -3.0090223820621206E-9   -4.077569055300785E-9    -4.946956494157095E-9    -4.610379404241656E-9    -8.500891609503296E-11   7.1269368371543E-11      2.1957632788829405E-10
3.7E-5                    -3.184079020330152E-10   -6.95222560634737E-10    -1.9893046011335182E-9   -2.7909098523785556E-9   -3.4699522354456205E-9   -4.6026854836208434E-9   -5.423612283530675E-9    -5.186135827229075E-9    -6.867866371107745E-11   1.239401533346511E-10    2.743334399985664E-10
3.75E-5                   -3.5504037231715467E-10  -8.295227191376603E-10   -2.264513010855079E-9    -3.1505385894687204E-9   -3.891814842677622E-9    -5.053060789561349E-9    -5.7776764964264755E-9   -5.671911508219684E-9    -4.457239084039249E-11   1.841763811650997E-10    3.2589202293177077E-10
3.7999999999999995E-5     -3.8242976663803783E-10  -9.554916526520313E-10   -2.501157350692816E-9    -3.455853662626645E-9    -4.241012583365825E-9    -5.390231085860461E-9    -5.971641344978971E-9    -6.0295544855995535E-9   -9.61452703787444E-12    2.4897172795056276E-10   3.707907672156855E-10
3.85E-5                   -3.996049867182404E-10   -1.0687983969000285E-9   -2.6817598765888547E-9   -3.675944440849433E-9    -4.486163890983051E-9    -5.57465564874193E-9     -5.968944474452917E-9    -6.2200177159607985E-9   3.79585064470129E-11     3.1509959270394704E-10   4.070729675638261E-10
3.9E-5                    -4.0532214769179186E-10  -1.1614319110361622E-9   -2.7885119655454846E-9   -3.787181053258366E-9    -4.602317410303206E-9    -5.56858375642483E-9     -5.735631957892969E-9    -6.203849220751638E-9    9.761351939987105E-11    3.7972716241306587E-10   4.333616921083485E-10
3.95E-5                   -3.95907503064993E-10    -1.2216191283628915E-9   -2.8025919306479228E-9   -3.7744732977806975E-9   -4.567407640124939E-9    -5.3379513397744005E-9   -5.241002694076972E-9    -5.943408462450613E-9    1.6685643827318783E-10   4.401545788874451E-10    4.4713052115561255E-10
3.9999999999999996E-5     -3.6522309798936367E-10  -1.2363873115535872E-9   -2.704860654494778E-9    -3.623831220128244E-9    -4.355990710172916E-9    -4.8538243881121675E-9   -4.4575906175865715E-9   -5.40548052684867E-9     2.42584667988302E-10     4.932030694151631E-10    4.4392284351010313E-10
4.0499999999999995E-5     -3.073384376460535E-10   -1.195272290927417E-9    -2.4785389032056186E-9   -3.3157966698407763E-9   -3.938082804683983E-9    -4.093067653951956E-9    -3.362409416142876E-9    -4.5629279701472745E-9   3.222002532033551E-10    5.35033794827947E-10     4.1839840321096793E-10
4.1E-5                    -2.1976567889629148E-10  -1.0929075735322126E-9   -2.1119101836876795E-9   -2.828005349901843E-9    -3.2855892254309013E-9   -3.03829334829607E-9     -1.9403806552391156E-9   -3.3961227761507142E-9   4.0362410823039065E-10   5.615898543177079E-10    3.662860827836964E-10
4.15E-5                   -1.0449130516869858E-10  -9.288089289903983E-10   -1.5987833163358213E-9   -2.1443701602529196E-9   -2.3812420657082427E-9   -1.678330852823276E-9    -1.886665140085822E-10   -1.8952590128805418E-9   4.845725401335704E-10    5.691469150213405E-10    2.8558278319387875E-10
4.2E-5                    3.3785553052214353E-11   -7.044807768439673E-10   -9.370008841027866E-10   -1.2610646564551442E-9   -1.2227666018657874E-9   -1.0550924515924302E-11  1.8800837257614524E-9    -6.295315001004246E-11   5.620513054515926E-10    5.543649778576862E-10    1.7630142403031283E-10
4.2499999999999996E-5     1.900672251617511E-10    -4.2008058497249224E-10  -1.2744603330635576E-10  -1.8430150166992293E-10  1.800046877946681E-10    1.954997672013148E-9     4.236576778578947E-9     2.084173493848609E-9     6.325041586364361E-10    5.137871887435799E-10    3.948424434938197E-11
4.2999999999999995E-5     3.5953553255527007E-10   -7.36017052364111E-11    8.247386049888001E-10    1.0749075640679236E-9    1.8104170076841864E-9    4.191591365923633E-9     6.835473719831329E-9     4.514994092868115E-9     6.922436330989266E-10    4.433793017117371E-10    -1.2336010289602662E-10
4.35E-5                   5.358948218045067E-10    3.3633028718102225E-10   1.9073453763723433E-9    2.5015309661932322E-9    3.646230169250273E-9     6.654764869031476E-9     9.616578541294511E-9     7.183566072682801E-9     7.375655277113318E-10    3.388202491550921E-10    -3.0990151732582386E-10
4.4E-5                    7.101497578084815E-10    8.06209086792307E-10     3.098657641124839E-9     4.0726771433889285E-9    5.6554978150189355E-9    9.284947556280676E-9     1.2505504733013245E-8    1.0028666943572629E-8    7.643578477308746E-10    1.9665711190886422E-10   -5.161341641863174E-10
4.45E-5                   8.723399668925365E-10    1.3254185480072416E-9    4.366983380161045E-9     5.754691707391603E-9     7.792002004350886E-9     1.2010754772236499E-8    1.5413614563858373E-8    1.2973426186327469E-8    7.675709783592172E-10    1.5658716748148713E-11   -7.358100278024636E-10
4.4999999999999996E-5     1.0154542428877536E-9    1.8771755961113877E-9    5.672575211120589E-9     7.503809175725115E-9     9.99517219010258E-9      1.4749060456459297E-8    1.8237958553980992E-8    1.592514331634282E-8     7.4115365589359E-10      -2.024506615718718E-10   -9.60615671889855E-10
4.5499999999999995E-5     1.1375760157238954E-9    2.440608534250632E-9     6.970773130912041E-9     9.26768620352271E-9      1.2193553450400644E-8    1.7402337155030234E-8    2.086214780150057E-8     1.8775688021976666E-8    6.787803309807369E-10    -4.530910910397648E-10   -1.1809170667554968E-9
4.6E-5                    1.2391371339923702E-9    2.99183342710047E-9      8.21407520965025E-9      1.0985600834792502E-8    1.43071335901221E-8      1.9857973130892474E-8    2.3158861681819956E-8    2.1403770087197963E-8    5.750745344651549E-10    -7.293570150257835E-10   -1.3865066701778985E-9
4.65E-5                   1.3167467088296729E-9    3.504487876303719E-9     9.351649086911932E-9     1.2588990660883282E-8    1.6247126453229645E-8    2.1992455894369445E-8    2.4994437301201795E-8    2.3679895442494237E-8    4.265957197811638E-10    -1.0225577349708673E-9   -1.5668767735882106E-9
4.7E-5                    1.3588201710869188E-9    3.9513236595775975E-9    1.032754615400825E-8     1.4004262025257414E-8    1.7916972670281413E-8    2.36781237325358E-8      2.623528877280537E-8     2.5472683113336447E-8    2.3206392242186509E-10   -1.3226460486501243E-9   -1.7109585307732347E-9
4.7499999999999996E-5     1.3471673723229933E-9    4.306507845959177E-9     1.1080808077759398E-8    1.5156475801032003E-8    1.9217571198738423E-8    2.478877473641419E-8     2.675476657559176E-8     2.665418373197812E-8     -7.994921328594191E-12   -1.6184712607422562E-9   -1.8067093041767997E-9
4.8E-5                    1.2638236498687254E-9    4.546475375873788E-9     1.1549231766189569E-8    1.5971487721524817E-8    2.005416216262684E-8     2.5203594419127455E-8    2.6438862657221577E-8    2.7103605887515208E-8    -2.9148888144911344E-10  -1.8977092081937614E-9   -1.8411597380028197E-9
4.85E-5                   1.0983694537346922E-9    4.648551385210421E-9     1.1675109938498417E-8    1.6377034350831987E-8    2.0340082657315773E-8    2.4811295726060646E-8    2.5190628505267896E-8    2.6711128695841657E-8    -6.144147550995237E-10   -2.146543798202125E-9    -1.8013617576116895E-9